 Entering Gaussian System, Link 0=g16
 Input=benzene.com
 Output=benzene.log
 Initial command:
 /uufs/chpc.utah.edu/sys/installdir/gaussian16/C01/AVX/g16/l1.exe "/scratch/general/vast/u6048529/notchpeak.peaks/Gau-773938.inp" -scrdir="/scratch/general/vast/u6048529/notchpeak.peaks/"
 Entering Link 1 = /uufs/chpc.utah.edu/sys/installdir/gaussian16/C01/AVX/g16/l1.exe PID=    773939.
  
 Copyright (c) 1988-2019, Gaussian, Inc.  All Rights Reserved.
  
 This is part of the Gaussian(R) 16 program.  It is based on
 the Gaussian(R) 09 system (copyright 2009, Gaussian, Inc.),
 the Gaussian(R) 03 system (copyright 2003, Gaussian, Inc.),
 the Gaussian(R) 98 system (copyright 1998, Gaussian, Inc.),
 the Gaussian(R) 94 system (copyright 1995, Gaussian, Inc.),
 the Gaussian 92(TM) system (copyright 1992, Gaussian, Inc.),
 the Gaussian 90(TM) system (copyright 1990, Gaussian, Inc.),
 the Gaussian 88(TM) system (copyright 1988, Gaussian, Inc.),
 the Gaussian 86(TM) system (copyright 1986, Carnegie Mellon
 University), and the Gaussian 82(TM) system (copyright 1983,
 Carnegie Mellon University). Gaussian is a federally registered
 trademark of Gaussian, Inc.
  
 This software contains proprietary and confidential information,
 including trade secrets, belonging to Gaussian, Inc.
  
 This software is provided under written license and may be
 used, copied, transmitted, or stored only in accord with that
 written license.
  
 The following legend is applicable only to US Government
 contracts under FAR:
  
                    RESTRICTED RIGHTS LEGEND
  
 Use, reproduction and disclosure by the US Government is
 subject to restrictions as set forth in subparagraphs (a)
 and (c) of the Commercial Computer Software - Restricted
 Rights clause in FAR 52.227-19.
  
 Gaussian, Inc.
 340 Quinnipiac St., Bldg. 40, Wallingford CT 06492
  
  
 ---------------------------------------------------------------
 Warning -- This program may not be used in any manner that
 competes with the business of Gaussian, Inc. or will provide
 assistance to any competitor of Gaussian, Inc.  The licensee
 of this program is prohibited from giving any competitor of
 Gaussian, Inc. access to this program.  By using this program,
 the user acknowledges that Gaussian, Inc. is engaged in the
 business of creating and licensing software in the field of
 computational chemistry and represents and warrants to the
 licensee that it is not a competitor of Gaussian, Inc. and that
 it will not use this program in any manner prohibited above.
 ---------------------------------------------------------------
  

 Cite this work as:
 Gaussian 16, Revision C.01,
 M. J. Frisch, G. W. Trucks, H. B. Schlegel, G. E. Scuseria, 
 M. A. Robb, J. R. Cheeseman, G. Scalmani, V. Barone, 
 G. A. Petersson, H. Nakatsuji, X. Li, M. Caricato, A. V. Marenich, 
 J. Bloino, B. G. Janesko, R. Gomperts, B. Mennucci, H. P. Hratchian, 
 J. V. Ortiz, A. F. Izmaylov, J. L. Sonnenberg, D. Williams-Young, 
 F. Ding, F. Lipparini, F. Egidi, J. Goings, B. Peng, A. Petrone, 
 T. Henderson, D. Ranasinghe, V. G. Zakrzewski, J. Gao, N. Rega, 
 G. Zheng, W. Liang, M. Hada, M. Ehara, K. Toyota, R. Fukuda, 
 J. Hasegawa, M. Ishida, T. Nakajima, Y. Honda, O. Kitao, H. Nakai, 
 T. Vreven, K. Throssell, J. A. Montgomery, Jr., J. E. Peralta, 
 F. Ogliaro, M. J. Bearpark, J. J. Heyd, E. N. Brothers, K. N. Kudin, 
 V. N. Staroverov, T. A. Keith, R. Kobayashi, J. Normand, 
 K. Raghavachari, A. P. Rendell, J. C. Burant, S. S. Iyengar, 
 J. Tomasi, M. Cossi, J. M. Millam, M. Klene, C. Adamo, R. Cammi, 
 J. W. Ochterski, R. L. Martin, K. Morokuma, O. Farkas, 
 J. B. Foresman, and D. J. Fox, Gaussian, Inc., Wallingford CT, 2019.
 
 ******************************************
 Gaussian 16:  ES64L-G16RevC.01  3-Jul-2019
                30-Oct-2023 
 ******************************************
 %NProcShared=16
 Will use up to   16 processors via shared memory.
 %Mem=40GB
 %chk=benzene.chk
 ------------------------------------------------------------------
 #N SCF=(qc,symm) NMR IOp(10/46=1) geom=connectivity B3LYP def2TZVP
 ------------------------------------------------------------------
 1/38=1,57=2,172=1/1;
 2/12=2,17=6,18=5,40=1/2;
 3/5=44,7=101,11=2,25=1,30=1,74=-5/1,2,3,8;
 4/9=4/1;
 5/5=2,8=3,38=5/8;
 8/6=1,10=90,11=11/1;
 10/13=100,45=16,46=1/2;
 6/7=2,8=2,9=2,10=2,28=1/1;
 99/9=1/99;
 ------------
 comment line
 ------------
 Symbolic Z-matrix:
 Charge =  0 Multiplicity = 1
 C                     0.        1.397     0. 
 C                     1.2098    0.6985    0. 
 C                     1.2098   -0.6985    0. 
 C                     0.       -1.397     0. 
 C                    -1.2098   -0.6985    0. 
 C                    -1.2098    0.6985    0. 
 H                     0.        2.481     0. 
 H                     2.1486    1.2405    0. 
 H                     2.1486   -1.2405    0. 
 H                     0.       -2.481     0. 
 H                    -2.1486   -1.2405    0. 
 H                    -2.1486    1.2405    0. 
 Bq                   -3.       -3.        1. 
 Bq                   -3.       -2.8       1. 
 Bq                   -3.       -2.6       1. 
 Bq                   -3.       -2.4       1. 
 Bq                   -3.       -2.2       1. 
 Bq                   -3.       -2.        1. 
 Bq                   -3.       -1.8       1. 
 Bq                   -3.       -1.6       1. 
 Bq                   -3.       -1.4       1. 
 Bq                   -3.       -1.2       1. 
 Bq                   -3.       -1.        1. 
 Bq                   -3.       -0.8       1. 
 Bq                   -3.       -0.6       1. 
 Bq                   -3.       -0.4       1. 
 Bq                   -3.       -0.2       1. 
 Bq                   -3.        0.        1. 
 Bq                   -3.        0.2       1. 
 Bq                   -3.        0.4       1. 
 Bq                   -3.        0.6       1. 
 Bq                   -3.        0.8       1. 
 Bq                   -3.        1.        1. 
 Bq                   -3.        1.2       1. 
 Bq                   -3.        1.4       1. 
 Bq                   -3.        1.6       1. 
 Bq                   -3.        1.8       1. 
 Bq                   -3.        2.        1. 
 Bq                   -3.        2.2       1. 
 Bq                   -3.        2.4       1. 
 Bq                   -3.        2.6       1. 
 Bq                   -3.        2.8       1. 
 Bq                   -3.        3.        1. 
 Bq                   -2.8      -3.        1. 
 Bq                   -2.8      -2.8       1. 
 Bq                   -2.8      -2.6       1. 
 Bq                   -2.8      -2.4       1. 
 Bq                   -2.8      -2.2       1. 
 Bq                   -2.8      -2.        1. 
 Bq                   -2.8      -1.8       1. 
 Bq                   -2.8      -1.6       1. 
 Bq                   -2.8      -1.4       1. 
 Bq                   -2.8      -1.2       1. 
 Bq                   -2.8      -1.        1. 
 Bq                   -2.8      -0.8       1. 
 Bq                   -2.8      -0.6       1. 
 Bq                   -2.8      -0.4       1. 
 Bq                   -2.8      -0.2       1. 
 Bq                   -2.8       0.        1. 
 Bq                   -2.8       0.2       1. 
 Bq                   -2.8       0.4       1. 
 Bq                   -2.8       0.6       1. 
 Bq                   -2.8       0.8       1. 
 Bq                   -2.8       1.        1. 
 Bq                   -2.8       1.2       1. 
 Bq                   -2.8       1.4       1. 
 Bq                   -2.8       1.6       1. 
 Bq                   -2.8       1.8       1. 
 Bq                   -2.8       2.        1. 
 Bq                   -2.8       2.2       1. 
 Bq                   -2.8       2.4       1. 
 Bq                   -2.8       2.6       1. 
 Bq                   -2.8       2.8       1. 
 Bq                   -2.8       3.        1. 
 Bq                   -2.6      -3.        1. 
 Bq                   -2.6      -2.8       1. 
 Bq                   -2.6      -2.6       1. 
 Bq                   -2.6      -2.4       1. 
 Bq                   -2.6      -2.2       1. 
 Bq                   -2.6      -2.        1. 
 Bq                   -2.6      -1.8       1. 
 Bq                   -2.6      -1.6       1. 
 Bq                   -2.6      -1.4       1. 
 Bq                   -2.6      -1.2       1. 
 Bq                   -2.6      -1.        1. 
 Bq                   -2.6      -0.8       1. 
 Bq                   -2.6      -0.6       1. 
 Bq                   -2.6      -0.4       1. 
 Bq                   -2.6      -0.2       1. 
 Bq                   -2.6       0.        1. 
 Bq                   -2.6       0.2       1. 
 Bq                   -2.6       0.4       1. 
 Bq                   -2.6       0.6       1. 
 Bq                   -2.6       0.8       1. 
 Bq                   -2.6       1.        1. 
 Bq                   -2.6       1.2       1. 
 Bq                   -2.6       1.4       1. 
 Bq                   -2.6       1.6       1. 
 Bq                   -2.6       1.8       1. 
 Bq                   -2.6       2.        1. 
 Bq                   -2.6       2.2       1. 
 Bq                   -2.6       2.4       1. 
 Bq                   -2.6       2.6       1. 
 Bq                   -2.6       2.8       1. 
 Bq                   -2.6       3.        1. 
 Bq                   -2.4      -3.        1. 
 Bq                   -2.4      -2.8       1. 
 Bq                   -2.4      -2.6       1. 
 Bq                   -2.4      -2.4       1. 
 Bq                   -2.4      -2.2       1. 
 Bq                   -2.4      -2.        1. 
 Bq                   -2.4      -1.8       1. 
 Bq                   -2.4      -1.6       1. 
 Bq                   -2.4      -1.4       1. 
 Bq                   -2.4      -1.2       1. 
 Bq                   -2.4      -1.        1. 
 Bq                   -2.4      -0.8       1. 
 Bq                   -2.4      -0.6       1. 
 Bq                   -2.4      -0.4       1. 
 Bq                   -2.4      -0.2       1. 
 Bq                   -2.4       0.        1. 
 Bq                   -2.4       0.2       1. 
 Bq                   -2.4       0.4       1. 
 Bq                   -2.4       0.6       1. 
 Bq                   -2.4       0.8       1. 
 Bq                   -2.4       1.        1. 
 Bq                   -2.4       1.2       1. 
 Bq                   -2.4       1.4       1. 
 Bq                   -2.4       1.6       1. 
 Bq                   -2.4       1.8       1. 
 Bq                   -2.4       2.        1. 
 Bq                   -2.4       2.2       1. 
 Bq                   -2.4       2.4       1. 
 Bq                   -2.4       2.6       1. 
 Bq                   -2.4       2.8       1. 
 Bq                   -2.4       3.        1. 
 Bq                   -2.2      -3.        1. 
 Bq                   -2.2      -2.8       1. 
 Bq                   -2.2      -2.6       1. 
 Bq                   -2.2      -2.4       1. 
 Bq                   -2.2      -2.2       1. 
 Bq                   -2.2      -2.        1. 
 Bq                   -2.2      -1.8       1. 
 Bq                   -2.2      -1.6       1. 
 Bq                   -2.2      -1.4       1. 
 Bq                   -2.2      -1.2       1. 
 Bq                   -2.2      -1.        1. 
 Bq                   -2.2      -0.8       1. 
 Bq                   -2.2      -0.6       1. 
 Bq                   -2.2      -0.4       1. 
 Bq                   -2.2      -0.2       1. 
 Bq                   -2.2       0.        1. 
 Bq                   -2.2       0.2       1. 
 Bq                   -2.2       0.4       1. 
 Bq                   -2.2       0.6       1. 
 Bq                   -2.2       0.8       1. 
 Bq                   -2.2       1.        1. 
 Bq                   -2.2       1.2       1. 
 Bq                   -2.2       1.4       1. 
 Bq                   -2.2       1.6       1. 
 Bq                   -2.2       1.8       1. 
 Bq                   -2.2       2.        1. 
 Bq                   -2.2       2.2       1. 
 Bq                   -2.2       2.4       1. 
 Bq                   -2.2       2.6       1. 
 Bq                   -2.2       2.8       1. 
 Bq                   -2.2       3.        1. 
 Bq                   -2.       -3.        1. 
 Bq                   -2.       -2.8       1. 
 Bq                   -2.       -2.6       1. 
 Bq                   -2.       -2.4       1. 
 Bq                   -2.       -2.2       1. 
 Bq                   -2.       -2.        1. 
 Bq                   -2.       -1.8       1. 
 Bq                   -2.       -1.6       1. 
 Bq                   -2.       -1.4       1. 
 Bq                   -2.       -1.2       1. 
 Bq                   -2.       -1.        1. 
 Bq                   -2.       -0.8       1. 
 Bq                   -2.       -0.6       1. 
 Bq                   -2.       -0.4       1. 
 Bq                   -2.       -0.2       1. 
 Bq                   -2.        0.        1. 
 Bq                   -2.        0.2       1. 
 Bq                   -2.        0.4       1. 
 Bq                   -2.        0.6       1. 
 Bq                   -2.        0.8       1. 
 Bq                   -2.        1.        1. 
 Bq                   -2.        1.2       1. 
 Bq                   -2.        1.4       1. 
 Bq                   -2.        1.6       1. 
 Bq                   -2.        1.8       1. 
 Bq                   -2.        2.        1. 
 Bq                   -2.        2.2       1. 
 Bq                   -2.        2.4       1. 
 Bq                   -2.        2.6       1. 
 Bq                   -2.        2.8       1. 
 Bq                   -2.        3.        1. 
 Bq                   -1.8      -3.        1. 
 Bq                   -1.8      -2.8       1. 
 Bq                   -1.8      -2.6       1. 
 Bq                   -1.8      -2.4       1. 
 Bq                   -1.8      -2.2       1. 
 Bq                   -1.8      -2.        1. 
 Bq                   -1.8      -1.8       1. 
 Bq                   -1.8      -1.6       1. 
 Bq                   -1.8      -1.4       1. 
 Bq                   -1.8      -1.2       1. 
 Bq                   -1.8      -1.        1. 
 Bq                   -1.8      -0.8       1. 
 Bq                   -1.8      -0.6       1. 
 Bq                   -1.8      -0.4       1. 
 Bq                   -1.8      -0.2       1. 
 Bq                   -1.8       0.        1. 
 Bq                   -1.8       0.2       1. 
 Bq                   -1.8       0.4       1. 
 Bq                   -1.8       0.6       1. 
 Bq                   -1.8       0.8       1. 
 Bq                   -1.8       1.        1. 
 Bq                   -1.8       1.2       1. 
 Bq                   -1.8       1.4       1. 
 Bq                   -1.8       1.6       1. 
 Bq                   -1.8       1.8       1. 
 Bq                   -1.8       2.        1. 
 Bq                   -1.8       2.2       1. 
 Bq                   -1.8       2.4       1. 
 Bq                   -1.8       2.6       1. 
 Bq                   -1.8       2.8       1. 
 Bq                   -1.8       3.        1. 
 Bq                   -1.6      -3.        1. 
 Bq                   -1.6      -2.8       1. 
 Bq                   -1.6      -2.6       1. 
 Bq                   -1.6      -2.4       1. 
 Bq                   -1.6      -2.2       1. 
 Bq                   -1.6      -2.        1. 
 Bq                   -1.6      -1.8       1. 
 Bq                   -1.6      -1.6       1. 
 Bq                   -1.6      -1.4       1. 
 Bq                   -1.6      -1.2       1. 
 Bq                   -1.6      -1.        1. 
 Bq                   -1.6      -0.8       1. 
 Bq                   -1.6      -0.6       1. 
 Bq                   -1.6      -0.4       1. 
 Bq                   -1.6      -0.2       1. 
 Bq                   -1.6       0.        1. 
 Bq                   -1.6       0.2       1. 
 Bq                   -1.6       0.4       1. 
 Bq                   -1.6       0.6       1. 
 Bq                   -1.6       0.8       1. 
 Bq                   -1.6       1.        1. 
 Bq                   -1.6       1.2       1. 
 Bq                   -1.6       1.4       1. 
 Bq                   -1.6       1.6       1. 
 Bq                   -1.6       1.8       1. 
 Bq                   -1.6       2.        1. 
 Bq                   -1.6       2.2       1. 
 Bq                   -1.6       2.4       1. 
 Bq                   -1.6       2.6       1. 
 Bq                   -1.6       2.8       1. 
 Bq                   -1.6       3.        1. 
 Bq                   -1.4      -3.        1. 
 Bq                   -1.4      -2.8       1. 
 Bq                   -1.4      -2.6       1. 
 Bq                   -1.4      -2.4       1. 
 Bq                   -1.4      -2.2       1. 
 Bq                   -1.4      -2.        1. 
 Bq                   -1.4      -1.8       1. 
 Bq                   -1.4      -1.6       1. 
 Bq                   -1.4      -1.4       1. 
 Bq                   -1.4      -1.2       1. 
 Bq                   -1.4      -1.        1. 
 Bq                   -1.4      -0.8       1. 
 Bq                   -1.4      -0.6       1. 
 Bq                   -1.4      -0.4       1. 
 Bq                   -1.4      -0.2       1. 
 Bq                   -1.4       0.        1. 
 Bq                   -1.4       0.2       1. 
 Bq                   -1.4       0.4       1. 
 Bq                   -1.4       0.6       1. 
 Bq                   -1.4       0.8       1. 
 Bq                   -1.4       1.        1. 
 Bq                   -1.4       1.2       1. 
 Bq                   -1.4       1.4       1. 
 Bq                   -1.4       1.6       1. 
 Bq                   -1.4       1.8       1. 
 Bq                   -1.4       2.        1. 
 Bq                   -1.4       2.2       1. 
 Bq                   -1.4       2.4       1. 
 Bq                   -1.4       2.6       1. 
 Bq                   -1.4       2.8       1. 
 Bq                   -1.4       3.        1. 
 Bq                   -1.2      -3.        1. 
 Bq                   -1.2      -2.8       1. 
 Bq                   -1.2      -2.6       1. 
 Bq                   -1.2      -2.4       1. 
 Bq                   -1.2      -2.2       1. 
 Bq                   -1.2      -2.        1. 
 Bq                   -1.2      -1.8       1. 
 Bq                   -1.2      -1.6       1. 
 Bq                   -1.2      -1.4       1. 
 Bq                   -1.2      -1.2       1. 
 Bq                   -1.2      -1.        1. 
 Bq                   -1.2      -0.8       1. 
 Bq                   -1.2      -0.6       1. 
 Bq                   -1.2      -0.4       1. 
 Bq                   -1.2      -0.2       1. 
 Bq                   -1.2       0.        1. 
 Bq                   -1.2       0.2       1. 
 Bq                   -1.2       0.4       1. 
 Bq                   -1.2       0.6       1. 
 Bq                   -1.2       0.8       1. 
 Bq                   -1.2       1.        1. 
 Bq                   -1.2       1.2       1. 
 Bq                   -1.2       1.4       1. 
 Bq                   -1.2       1.6       1. 
 Bq                   -1.2       1.8       1. 
 Bq                   -1.2       2.        1. 
 Bq                   -1.2       2.2       1. 
 Bq                   -1.2       2.4       1. 
 Bq                   -1.2       2.6       1. 
 Bq                   -1.2       2.8       1. 
 Bq                   -1.2       3.        1. 
 Bq                   -1.       -3.        1. 
 Bq                   -1.       -2.8       1. 
 Bq                   -1.       -2.6       1. 
 Bq                   -1.       -2.4       1. 
 Bq                   -1.       -2.2       1. 
 Bq                   -1.       -2.        1. 
 Bq                   -1.       -1.8       1. 
 Bq                   -1.       -1.6       1. 
 Bq                   -1.       -1.4       1. 
 Bq                   -1.       -1.2       1. 
 Bq                   -1.       -1.        1. 
 Bq                   -1.       -0.8       1. 
 Bq                   -1.       -0.6       1. 
 Bq                   -1.       -0.4       1. 
 Bq                   -1.       -0.2       1. 
 Bq                   -1.        0.        1. 
 Bq                   -1.        0.2       1. 
 Bq                   -1.        0.4       1. 
 Bq                   -1.        0.6       1. 
 Bq                   -1.        0.8       1. 
 Bq                   -1.        1.        1. 
 Bq                   -1.        1.2       1. 
 Bq                   -1.        1.4       1. 
 Bq                   -1.        1.6       1. 
 Bq                   -1.        1.8       1. 
 Bq                   -1.        2.        1. 
 Bq                   -1.        2.2       1. 
 Bq                   -1.        2.4       1. 
 Bq                   -1.        2.6       1. 
 Bq                   -1.        2.8       1. 
 Bq                   -1.        3.        1. 
 Bq                   -0.8      -3.        1. 
 Bq                   -0.8      -2.8       1. 
 Bq                   -0.8      -2.6       1. 
 Bq                   -0.8      -2.4       1. 
 Bq                   -0.8      -2.2       1. 
 Bq                   -0.8      -2.        1. 
 Bq                   -0.8      -1.8       1. 
 Bq                   -0.8      -1.6       1. 
 Bq                   -0.8      -1.4       1. 
 Bq                   -0.8      -1.2       1. 
 Bq                   -0.8      -1.        1. 
 Bq                   -0.8      -0.8       1. 
 Bq                   -0.8      -0.6       1. 
 Bq                   -0.8      -0.4       1. 
 Bq                   -0.8      -0.2       1. 
 Bq                   -0.8       0.        1. 
 Bq                   -0.8       0.2       1. 
 Bq                   -0.8       0.4       1. 
 Bq                   -0.8       0.6       1. 
 Bq                   -0.8       0.8       1. 
 Bq                   -0.8       1.        1. 
 Bq                   -0.8       1.2       1. 
 Bq                   -0.8       1.4       1. 
 Bq                   -0.8       1.6       1. 
 Bq                   -0.8       1.8       1. 
 Bq                   -0.8       2.        1. 
 Bq                   -0.8       2.2       1. 
 Bq                   -0.8       2.4       1. 
 Bq                   -0.8       2.6       1. 
 Bq                   -0.8       2.8       1. 
 Bq                   -0.8       3.        1. 
 Bq                   -0.6      -3.        1. 
 Bq                   -0.6      -2.8       1. 
 Bq                   -0.6      -2.6       1. 
 Bq                   -0.6      -2.4       1. 
 Bq                   -0.6      -2.2       1. 
 Bq                   -0.6      -2.        1. 
 Bq                   -0.6      -1.8       1. 
 Bq                   -0.6      -1.6       1. 
 Bq                   -0.6      -1.4       1. 
 Bq                   -0.6      -1.2       1. 
 Bq                   -0.6      -1.        1. 
 Bq                   -0.6      -0.8       1. 
 Bq                   -0.6      -0.6       1. 
 Bq                   -0.6      -0.4       1. 
 Bq                   -0.6      -0.2       1. 
 Bq                   -0.6       0.        1. 
 Bq                   -0.6       0.2       1. 
 Bq                   -0.6       0.4       1. 
 Bq                   -0.6       0.6       1. 
 Bq                   -0.6       0.8       1. 
 Bq                   -0.6       1.        1. 
 Bq                   -0.6       1.2       1. 
 Bq                   -0.6       1.4       1. 
 Bq                   -0.6       1.6       1. 
 Bq                   -0.6       1.8       1. 
 Bq                   -0.6       2.        1. 
 Bq                   -0.6       2.2       1. 
 Bq                   -0.6       2.4       1. 
 Bq                   -0.6       2.6       1. 
 Bq                   -0.6       2.8       1. 
 Bq                   -0.6       3.        1. 
 Bq                   -0.4      -3.        1. 
 Bq                   -0.4      -2.8       1. 
 Bq                   -0.4      -2.6       1. 
 Bq                   -0.4      -2.4       1. 
 Bq                   -0.4      -2.2       1. 
 Bq                   -0.4      -2.        1. 
 Bq                   -0.4      -1.8       1. 
 Bq                   -0.4      -1.6       1. 
 Bq                   -0.4      -1.4       1. 
 Bq                   -0.4      -1.2       1. 
 Bq                   -0.4      -1.        1. 
 Bq                   -0.4      -0.8       1. 
 Bq                   -0.4      -0.6       1. 
 Bq                   -0.4      -0.4       1. 
 Bq                   -0.4      -0.2       1. 
 Bq                   -0.4       0.        1. 
 Bq                   -0.4       0.2       1. 
 Bq                   -0.4       0.4       1. 
 Bq                   -0.4       0.6       1. 
 Bq                   -0.4       0.8       1. 
 Bq                   -0.4       1.        1. 
 Bq                   -0.4       1.2       1. 
 Bq                   -0.4       1.4       1. 
 Bq                   -0.4       1.6       1. 
 Bq                   -0.4       1.8       1. 
 Bq                   -0.4       2.        1. 
 Bq                   -0.4       2.2       1. 
 Bq                   -0.4       2.4       1. 
 Bq                   -0.4       2.6       1. 
 Bq                   -0.4       2.8       1. 
 Bq                   -0.4       3.        1. 
 Bq                   -0.2      -3.        1. 
 Bq                   -0.2      -2.8       1. 
 Bq                   -0.2      -2.6       1. 
 Bq                   -0.2      -2.4       1. 
 Bq                   -0.2      -2.2       1. 
 Bq                   -0.2      -2.        1. 
 Bq                   -0.2      -1.8       1. 
 Bq                   -0.2      -1.6       1. 
 Bq                   -0.2      -1.4       1. 
 Bq                   -0.2      -1.2       1. 
 Bq                   -0.2      -1.        1. 
 Bq                   -0.2      -0.8       1. 
 Bq                   -0.2      -0.6       1. 
 Bq                   -0.2      -0.4       1. 
 Bq                   -0.2      -0.2       1. 
 Bq                   -0.2       0.        1. 
 Bq                   -0.2       0.2       1. 
 Bq                   -0.2       0.4       1. 
 Bq                   -0.2       0.6       1. 
 Bq                   -0.2       0.8       1. 
 Bq                   -0.2       1.        1. 
 Bq                   -0.2       1.2       1. 
 Bq                   -0.2       1.4       1. 
 Bq                   -0.2       1.6       1. 
 Bq                   -0.2       1.8       1. 
 Bq                   -0.2       2.        1. 
 Bq                   -0.2       2.2       1. 
 Bq                   -0.2       2.4       1. 
 Bq                   -0.2       2.6       1. 
 Bq                   -0.2       2.8       1. 
 Bq                   -0.2       3.        1. 
 Bq                    0.       -3.        1. 
 Bq                    0.       -2.8       1. 
 Bq                    0.       -2.6       1. 
 Bq                    0.       -2.4       1. 
 Bq                    0.       -2.2       1. 
 Bq                    0.       -2.        1. 
 Bq                    0.       -1.8       1. 
 Bq                    0.       -1.6       1. 
 Bq                    0.       -1.4       1. 
 Bq                    0.       -1.2       1. 
 Bq                    0.       -1.        1. 
 Bq                    0.       -0.8       1. 
 Bq                    0.       -0.6       1. 
 Bq                    0.       -0.4       1. 
 Bq                    0.       -0.2       1. 
 Bq                    0.        0.        1. 
 Bq                    0.        0.2       1. 
 Bq                    0.        0.4       1. 
 Bq                    0.        0.6       1. 
 Bq                    0.        0.8       1. 
 Bq                    0.        1.        1. 
 Bq                    0.        1.2       1. 
 Bq                    0.        1.4       1. 
 Bq                    0.        1.6       1. 
 Bq                    0.        1.8       1. 
 Bq                    0.        2.        1. 
 Bq                    0.        2.2       1. 
 Bq                    0.        2.4       1. 
 Bq                    0.        2.6       1. 
 Bq                    0.        2.8       1. 
 Bq                    0.        3.        1. 
 Bq                    0.2      -3.        1. 
 Bq                    0.2      -2.8       1. 
 Bq                    0.2      -2.6       1. 
 Bq                    0.2      -2.4       1. 
 Bq                    0.2      -2.2       1. 
 Bq                    0.2      -2.        1. 
 Bq                    0.2      -1.8       1. 
 Bq                    0.2      -1.6       1. 
 Bq                    0.2      -1.4       1. 
 Bq                    0.2      -1.2       1. 
 Bq                    0.2      -1.        1. 
 Bq                    0.2      -0.8       1. 
 Bq                    0.2      -0.6       1. 
 Bq                    0.2      -0.4       1. 
 Bq                    0.2      -0.2       1. 
 Bq                    0.2       0.        1. 
 Bq                    0.2       0.2       1. 
 Bq                    0.2       0.4       1. 
 Bq                    0.2       0.6       1. 
 Bq                    0.2       0.8       1. 
 Bq                    0.2       1.        1. 
 Bq                    0.2       1.2       1. 
 Bq                    0.2       1.4       1. 
 Bq                    0.2       1.6       1. 
 Bq                    0.2       1.8       1. 
 Bq                    0.2       2.        1. 
 Bq                    0.2       2.2       1. 
 Bq                    0.2       2.4       1. 
 Bq                    0.2       2.6       1. 
 Bq                    0.2       2.8       1. 
 Bq                    0.2       3.        1. 
 Bq                    0.4      -3.        1. 
 Bq                    0.4      -2.8       1. 
 Bq                    0.4      -2.6       1. 
 Bq                    0.4      -2.4       1. 
 Bq                    0.4      -2.2       1. 
 Bq                    0.4      -2.        1. 
 Bq                    0.4      -1.8       1. 
 Bq                    0.4      -1.6       1. 
 Bq                    0.4      -1.4       1. 
 Bq                    0.4      -1.2       1. 
 Bq                    0.4      -1.        1. 
 Bq                    0.4      -0.8       1. 
 Bq                    0.4      -0.6       1. 
 Bq                    0.4      -0.4       1. 
 Bq                    0.4      -0.2       1. 
 Bq                    0.4       0.        1. 
 Bq                    0.4       0.2       1. 
 Bq                    0.4       0.4       1. 
 Bq                    0.4       0.6       1. 
 Bq                    0.4       0.8       1. 
 Bq                    0.4       1.        1. 
 Bq                    0.4       1.2       1. 
 Bq                    0.4       1.4       1. 
 Bq                    0.4       1.6       1. 
 Bq                    0.4       1.8       1. 
 Bq                    0.4       2.        1. 
 Bq                    0.4       2.2       1. 
 Bq                    0.4       2.4       1. 
 Bq                    0.4       2.6       1. 
 Bq                    0.4       2.8       1. 
 Bq                    0.4       3.        1. 
 Bq                    0.6      -3.        1. 
 Bq                    0.6      -2.8       1. 
 Bq                    0.6      -2.6       1. 
 Bq                    0.6      -2.4       1. 
 Bq                    0.6      -2.2       1. 
 Bq                    0.6      -2.        1. 
 Bq                    0.6      -1.8       1. 
 Bq                    0.6      -1.6       1. 
 Bq                    0.6      -1.4       1. 
 Bq                    0.6      -1.2       1. 
 Bq                    0.6      -1.        1. 
 Bq                    0.6      -0.8       1. 
 Bq                    0.6      -0.6       1. 
 Bq                    0.6      -0.4       1. 
 Bq                    0.6      -0.2       1. 
 Bq                    0.6       0.        1. 
 Bq                    0.6       0.2       1. 
 Bq                    0.6       0.4       1. 
 Bq                    0.6       0.6       1. 
 Bq                    0.6       0.8       1. 
 Bq                    0.6       1.        1. 
 Bq                    0.6       1.2       1. 
 Bq                    0.6       1.4       1. 
 Bq                    0.6       1.6       1. 
 Bq                    0.6       1.8       1. 
 Bq                    0.6       2.        1. 
 Bq                    0.6       2.2       1. 
 Bq                    0.6       2.4       1. 
 Bq                    0.6       2.6       1. 
 Bq                    0.6       2.8       1. 
 Bq                    0.6       3.        1. 
 Bq                    0.8      -3.        1. 
 Bq                    0.8      -2.8       1. 
 Bq                    0.8      -2.6       1. 
 Bq                    0.8      -2.4       1. 
 Bq                    0.8      -2.2       1. 
 Bq                    0.8      -2.        1. 
 Bq                    0.8      -1.8       1. 
 Bq                    0.8      -1.6       1. 
 Bq                    0.8      -1.4       1. 
 Bq                    0.8      -1.2       1. 
 Bq                    0.8      -1.        1. 
 Bq                    0.8      -0.8       1. 
 Bq                    0.8      -0.6       1. 
 Bq                    0.8      -0.4       1. 
 Bq                    0.8      -0.2       1. 
 Bq                    0.8       0.        1. 
 Bq                    0.8       0.2       1. 
 Bq                    0.8       0.4       1. 
 Bq                    0.8       0.6       1. 
 Bq                    0.8       0.8       1. 
 Bq                    0.8       1.        1. 
 Bq                    0.8       1.2       1. 
 Bq                    0.8       1.4       1. 
 Bq                    0.8       1.6       1. 
 Bq                    0.8       1.8       1. 
 Bq                    0.8       2.        1. 
 Bq                    0.8       2.2       1. 
 Bq                    0.8       2.4       1. 
 Bq                    0.8       2.6       1. 
 Bq                    0.8       2.8       1. 
 Bq                    0.8       3.        1. 
 Bq                    1.       -3.        1. 
 Bq                    1.       -2.8       1. 
 Bq                    1.       -2.6       1. 
 Bq                    1.       -2.4       1. 
 Bq                    1.       -2.2       1. 
 Bq                    1.       -2.        1. 
 Bq                    1.       -1.8       1. 
 Bq                    1.       -1.6       1. 
 Bq                    1.       -1.4       1. 
 Bq                    1.       -1.2       1. 
 Bq                    1.       -1.        1. 
 Bq                    1.       -0.8       1. 
 Bq                    1.       -0.6       1. 
 Bq                    1.       -0.4       1. 
 Bq                    1.       -0.2       1. 
 Bq                    1.        0.        1. 
 Bq                    1.        0.2       1. 
 Bq                    1.        0.4       1. 
 Bq                    1.        0.6       1. 
 Bq                    1.        0.8       1. 
 Bq                    1.        1.        1. 
 Bq                    1.        1.2       1. 
 Bq                    1.        1.4       1. 
 Bq                    1.        1.6       1. 
 Bq                    1.        1.8       1. 
 Bq                    1.        2.        1. 
 Bq                    1.        2.2       1. 
 Bq                    1.        2.4       1. 
 Bq                    1.        2.6       1. 
 Bq                    1.        2.8       1. 
 Bq                    1.        3.        1. 
 Bq                    1.2      -3.        1. 
 Bq                    1.2      -2.8       1. 
 Bq                    1.2      -2.6       1. 
 Bq                    1.2      -2.4       1. 
 Bq                    1.2      -2.2       1. 
 Bq                    1.2      -2.        1. 
 Bq                    1.2      -1.8       1. 
 Bq                    1.2      -1.6       1. 
 Bq                    1.2      -1.4       1. 
 Bq                    1.2      -1.2       1. 
 Bq                    1.2      -1.        1. 
 Bq                    1.2      -0.8       1. 
 Bq                    1.2      -0.6       1. 
 Bq                    1.2      -0.4       1. 
 Bq                    1.2      -0.2       1. 
 Bq                    1.2       0.        1. 
 Bq                    1.2       0.2       1. 
 Bq                    1.2       0.4       1. 
 Bq                    1.2       0.6       1. 
 Bq                    1.2       0.8       1. 
 Bq                    1.2       1.        1. 
 Bq                    1.2       1.2       1. 
 Bq                    1.2       1.4       1. 
 Bq                    1.2       1.6       1. 
 Bq                    1.2       1.8       1. 
 Bq                    1.2       2.        1. 
 Bq                    1.2       2.2       1. 
 Bq                    1.2       2.4       1. 
 Bq                    1.2       2.6       1. 
 Bq                    1.2       2.8       1. 
 Bq                    1.2       3.        1. 
 Bq                    1.4      -3.        1. 
 Bq                    1.4      -2.8       1. 
 Bq                    1.4      -2.6       1. 
 Bq                    1.4      -2.4       1. 
 Bq                    1.4      -2.2       1. 
 Bq                    1.4      -2.        1. 
 Bq                    1.4      -1.8       1. 
 Bq                    1.4      -1.6       1. 
 Bq                    1.4      -1.4       1. 
 Bq                    1.4      -1.2       1. 
 Bq                    1.4      -1.        1. 
 Bq                    1.4      -0.8       1. 
 Bq                    1.4      -0.6       1. 
 Bq                    1.4      -0.4       1. 
 Bq                    1.4      -0.2       1. 
 Bq                    1.4       0.        1. 
 Bq                    1.4       0.2       1. 
 Bq                    1.4       0.4       1. 
 Bq                    1.4       0.6       1. 
 Bq                    1.4       0.8       1. 
 Bq                    1.4       1.        1. 
 Bq                    1.4       1.2       1. 
 Bq                    1.4       1.4       1. 
 Bq                    1.4       1.6       1. 
 Bq                    1.4       1.8       1. 
 Bq                    1.4       2.        1. 
 Bq                    1.4       2.2       1. 
 Bq                    1.4       2.4       1. 
 Bq                    1.4       2.6       1. 
 Bq                    1.4       2.8       1. 
 Bq                    1.4       3.        1. 
 Bq                    1.6      -3.        1. 
 Bq                    1.6      -2.8       1. 
 Bq                    1.6      -2.6       1. 
 Bq                    1.6      -2.4       1. 
 Bq                    1.6      -2.2       1. 
 Bq                    1.6      -2.        1. 
 Bq                    1.6      -1.8       1. 
 Bq                    1.6      -1.6       1. 
 Bq                    1.6      -1.4       1. 
 Bq                    1.6      -1.2       1. 
 Bq                    1.6      -1.        1. 
 Bq                    1.6      -0.8       1. 
 Bq                    1.6      -0.6       1. 
 Bq                    1.6      -0.4       1. 
 Bq                    1.6      -0.2       1. 
 Bq                    1.6       0.        1. 
 Bq                    1.6       0.2       1. 
 Bq                    1.6       0.4       1. 
 Bq                    1.6       0.6       1. 
 Bq                    1.6       0.8       1. 
 Bq                    1.6       1.        1. 
 Bq                    1.6       1.2       1. 
 Bq                    1.6       1.4       1. 
 Bq                    1.6       1.6       1. 
 Bq                    1.6       1.8       1. 
 Bq                    1.6       2.        1. 
 Bq                    1.6       2.2       1. 
 Bq                    1.6       2.4       1. 
 Bq                    1.6       2.6       1. 
 Bq                    1.6       2.8       1. 
 Bq                    1.6       3.        1. 
 Bq                    1.8      -3.        1. 
 Bq                    1.8      -2.8       1. 
 Bq                    1.8      -2.6       1. 
 Bq                    1.8      -2.4       1. 
 Bq                    1.8      -2.2       1. 
 Bq                    1.8      -2.        1. 
 Bq                    1.8      -1.8       1. 
 Bq                    1.8      -1.6       1. 
 Bq                    1.8      -1.4       1. 
 Bq                    1.8      -1.2       1. 
 Bq                    1.8      -1.        1. 
 Bq                    1.8      -0.8       1. 
 Bq                    1.8      -0.6       1. 
 Bq                    1.8      -0.4       1. 
 Bq                    1.8      -0.2       1. 
 Bq                    1.8       0.        1. 
 Bq                    1.8       0.2       1. 
 Bq                    1.8       0.4       1. 
 Bq                    1.8       0.6       1. 
 Bq                    1.8       0.8       1. 
 Bq                    1.8       1.        1. 
 Bq                    1.8       1.2       1. 
 Bq                    1.8       1.4       1. 
 Bq                    1.8       1.6       1. 
 Bq                    1.8       1.8       1. 
 Bq                    1.8       2.        1. 
 Bq                    1.8       2.2       1. 
 Bq                    1.8       2.4       1. 
 Bq                    1.8       2.6       1. 
 Bq                    1.8       2.8       1. 
 Bq                    1.8       3.        1. 
 Bq                    2.       -3.        1. 
 Bq                    2.       -2.8       1. 
 Bq                    2.       -2.6       1. 
 Bq                    2.       -2.4       1. 
 Bq                    2.       -2.2       1. 
 Bq                    2.       -2.        1. 
 Bq                    2.       -1.8       1. 
 Bq                    2.       -1.6       1. 
 Bq                    2.       -1.4       1. 
 Bq                    2.       -1.2       1. 
 Bq                    2.       -1.        1. 
 Bq                    2.       -0.8       1. 
 Bq                    2.       -0.6       1. 
 Bq                    2.       -0.4       1. 
 Bq                    2.       -0.2       1. 
 Bq                    2.        0.        1. 
 Bq                    2.        0.2       1. 
 Bq                    2.        0.4       1. 
 Bq                    2.        0.6       1. 
 Bq                    2.        0.8       1. 
 Bq                    2.        1.        1. 
 Bq                    2.        1.2       1. 
 Bq                    2.        1.4       1. 
 Bq                    2.        1.6       1. 
 Bq                    2.        1.8       1. 
 Bq                    2.        2.        1. 
 Bq                    2.        2.2       1. 
 Bq                    2.        2.4       1. 
 Bq                    2.        2.6       1. 
 Bq                    2.        2.8       1. 
 Bq                    2.        3.        1. 
 Bq                    2.2      -3.        1. 
 Bq                    2.2      -2.8       1. 
 Bq                    2.2      -2.6       1. 
 Bq                    2.2      -2.4       1. 
 Bq                    2.2      -2.2       1. 
 Bq                    2.2      -2.        1. 
 Bq                    2.2      -1.8       1. 
 Bq                    2.2      -1.6       1. 
 Bq                    2.2      -1.4       1. 
 Bq                    2.2      -1.2       1. 
 Bq                    2.2      -1.        1. 
 Bq                    2.2      -0.8       1. 
 Bq                    2.2      -0.6       1. 
 Bq                    2.2      -0.4       1. 
 Bq                    2.2      -0.2       1. 
 Bq                    2.2       0.        1. 
 Bq                    2.2       0.2       1. 
 Bq                    2.2       0.4       1. 
 Bq                    2.2       0.6       1. 
 Bq                    2.2       0.8       1. 
 Bq                    2.2       1.        1. 
 Bq                    2.2       1.2       1. 
 Bq                    2.2       1.4       1. 
 Bq                    2.2       1.6       1. 
 Bq                    2.2       1.8       1. 
 Bq                    2.2       2.        1. 
 Bq                    2.2       2.2       1. 
 Bq                    2.2       2.4       1. 
 Bq                    2.2       2.6       1. 
 Bq                    2.2       2.8       1. 
 Bq                    2.2       3.        1. 
 Bq                    2.4      -3.        1. 
 Bq                    2.4      -2.8       1. 
 Bq                    2.4      -2.6       1. 
 Bq                    2.4      -2.4       1. 
 Bq                    2.4      -2.2       1. 
 Bq                    2.4      -2.        1. 
 Bq                    2.4      -1.8       1. 
 Bq                    2.4      -1.6       1. 
 Bq                    2.4      -1.4       1. 
 Bq                    2.4      -1.2       1. 
 Bq                    2.4      -1.        1. 
 Bq                    2.4      -0.8       1. 
 Bq                    2.4      -0.6       1. 
 Bq                    2.4      -0.4       1. 
 Bq                    2.4      -0.2       1. 
 Bq                    2.4       0.        1. 
 Bq                    2.4       0.2       1. 
 Bq                    2.4       0.4       1. 
 Bq                    2.4       0.6       1. 
 Bq                    2.4       0.8       1. 
 Bq                    2.4       1.        1. 
 Bq                    2.4       1.2       1. 
 Bq                    2.4       1.4       1. 
 Bq                    2.4       1.6       1. 
 Bq                    2.4       1.8       1. 
 Bq                    2.4       2.        1. 
 Bq                    2.4       2.2       1. 
 Bq                    2.4       2.4       1. 
 Bq                    2.4       2.6       1. 
 Bq                    2.4       2.8       1. 
 Bq                    2.4       3.        1. 
 Bq                    2.6      -3.        1. 
 Bq                    2.6      -2.8       1. 
 Bq                    2.6      -2.6       1. 
 Bq                    2.6      -2.4       1. 
 Bq                    2.6      -2.2       1. 
 Bq                    2.6      -2.        1. 
 Bq                    2.6      -1.8       1. 
 Bq                    2.6      -1.6       1. 
 Bq                    2.6      -1.4       1. 
 Bq                    2.6      -1.2       1. 
 Bq                    2.6      -1.        1. 
 Bq                    2.6      -0.8       1. 
 Bq                    2.6      -0.6       1. 
 Bq                    2.6      -0.4       1. 
 Bq                    2.6      -0.2       1. 
 Bq                    2.6       0.        1. 
 Bq                    2.6       0.2       1. 
 Bq                    2.6       0.4       1. 
 Bq                    2.6       0.6       1. 
 Bq                    2.6       0.8       1. 
 Bq                    2.6       1.        1. 
 Bq                    2.6       1.2       1. 
 Bq                    2.6       1.4       1. 
 Bq                    2.6       1.6       1. 
 Bq                    2.6       1.8       1. 
 Bq                    2.6       2.        1. 
 Bq                    2.6       2.2       1. 
 Bq                    2.6       2.4       1. 
 Bq                    2.6       2.6       1. 
 Bq                    2.6       2.8       1. 
 Bq                    2.6       3.        1. 
 Bq                    2.8      -3.        1. 
 Bq                    2.8      -2.8       1. 
 Bq                    2.8      -2.6       1. 
 Bq                    2.8      -2.4       1. 
 Bq                    2.8      -2.2       1. 
 Bq                    2.8      -2.        1. 
 Bq                    2.8      -1.8       1. 
 Bq                    2.8      -1.6       1. 
 Bq                    2.8      -1.4       1. 
 Bq                    2.8      -1.2       1. 
 Bq                    2.8      -1.        1. 
 Bq                    2.8      -0.8       1. 
 Bq                    2.8      -0.6       1. 
 Bq                    2.8      -0.4       1. 
 Bq                    2.8      -0.2       1. 
 Bq                    2.8       0.        1. 
 Bq                    2.8       0.2       1. 
 Bq                    2.8       0.4       1. 
 Bq                    2.8       0.6       1. 
 Bq                    2.8       0.8       1. 
 Bq                    2.8       1.        1. 
 Bq                    2.8       1.2       1. 
 Bq                    2.8       1.4       1. 
 Bq                    2.8       1.6       1. 
 Bq                    2.8       1.8       1. 
 Bq                    2.8       2.        1. 
 Bq                    2.8       2.2       1. 
 Bq                    2.8       2.4       1. 
 Bq                    2.8       2.6       1. 
 Bq                    2.8       2.8       1. 
 Bq                    2.8       3.        1. 
 Bq                    3.       -3.        1. 
 Bq                    3.       -2.8       1. 
 Bq                    3.       -2.6       1. 
 Bq                    3.       -2.4       1. 
 Bq                    3.       -2.2       1. 
 Bq                    3.       -2.        1. 
 Bq                    3.       -1.8       1. 
 Bq                    3.       -1.6       1. 
 Bq                    3.       -1.4       1. 
 Bq                    3.       -1.2       1. 
 Bq                    3.       -1.        1. 
 Bq                    3.       -0.8       1. 
 Bq                    3.       -0.6       1. 
 Bq                    3.       -0.4       1. 
 Bq                    3.       -0.2       1. 
 Bq                    3.        0.        1. 
 Bq                    3.        0.2       1. 
 Bq                    3.        0.4       1. 
 Bq                    3.        0.6       1. 
 Bq                    3.        0.8       1. 
 Bq                    3.        1.        1. 
 Bq                    3.        1.2       1. 
 Bq                    3.        1.4       1. 
 Bq                    3.        1.6       1. 
 Bq                    3.        1.8       1. 
 Bq                    3.        2.        1. 
 Bq                    3.        2.2       1. 
 Bq                    3.        2.4       1. 
 Bq                    3.        2.6       1. 
 Bq                    3.        2.8       1. 
 Bq                    3.        3.        1. 
 
 Symmetry turned off:
 Cannot cope with ghost atoms or with translation vectors.
 Stoichiometry    C6H6
 Framework group  C1[X(C6H6)]
 NumDoF:  NAt=    12 NAtoms=   973
 Deg. of freedom     0
 Full point group                 C1      NOp   1
                          Input orientation:                          
 ---------------------------------------------------------------------
 Center     Atomic      Atomic             Coordinates (Angstroms)
 Number     Number       Type             X           Y           Z
 ---------------------------------------------------------------------
      1          6           0        0.000000    1.397000    0.000000
      2          6           0        1.209800    0.698500    0.000000
      3          6           0        1.209800   -0.698500    0.000000
      4          6           0        0.000000   -1.397000    0.000000
      5          6           0       -1.209800   -0.698500    0.000000
      6          6           0       -1.209800    0.698500    0.000000
      7          1           0        0.000000    2.481000    0.000000
      8          1           0        2.148600    1.240500    0.000000
      9          1           0        2.148600   -1.240500    0.000000
     10          1           0        0.000000   -2.481000    0.000000
     11          1           0       -2.148600   -1.240500    0.000000
     12          1           0       -2.148600    1.240500    0.000000
     13          0           0       -3.000000   -3.000000    1.000000
     14          0           0       -3.000000   -2.800000    1.000000
     15          0           0       -3.000000   -2.600000    1.000000
     16          0           0       -3.000000   -2.400000    1.000000
     17          0           0       -3.000000   -2.200000    1.000000
     18          0           0       -3.000000   -2.000000    1.000000
     19          0           0       -3.000000   -1.800000    1.000000
     20          0           0       -3.000000   -1.600000    1.000000
     21          0           0       -3.000000   -1.400000    1.000000
     22          0           0       -3.000000   -1.200000    1.000000
     23          0           0       -3.000000   -1.000000    1.000000
     24          0           0       -3.000000   -0.800000    1.000000
     25          0           0       -3.000000   -0.600000    1.000000
     26          0           0       -3.000000   -0.400000    1.000000
     27          0           0       -3.000000   -0.200000    1.000000
     28          0           0       -3.000000    0.000000    1.000000
     29          0           0       -3.000000    0.200000    1.000000
     30          0           0       -3.000000    0.400000    1.000000
     31          0           0       -3.000000    0.600000    1.000000
     32          0           0       -3.000000    0.800000    1.000000
     33          0           0       -3.000000    1.000000    1.000000
     34          0           0       -3.000000    1.200000    1.000000
     35          0           0       -3.000000    1.400000    1.000000
     36          0           0       -3.000000    1.600000    1.000000
     37          0           0       -3.000000    1.800000    1.000000
     38          0           0       -3.000000    2.000000    1.000000
     39          0           0       -3.000000    2.200000    1.000000
     40          0           0       -3.000000    2.400000    1.000000
     41          0           0       -3.000000    2.600000    1.000000
     42          0           0       -3.000000    2.800000    1.000000
     43          0           0       -3.000000    3.000000    1.000000
     44          0           0       -2.800000   -3.000000    1.000000
     45          0           0       -2.800000   -2.800000    1.000000
     46          0           0       -2.800000   -2.600000    1.000000
     47          0           0       -2.800000   -2.400000    1.000000
     48          0           0       -2.800000   -2.200000    1.000000
     49          0           0       -2.800000   -2.000000    1.000000
     50          0           0       -2.800000   -1.800000    1.000000
     51          0           0       -2.800000   -1.600000    1.000000
     52          0           0       -2.800000   -1.400000    1.000000
     53          0           0       -2.800000   -1.200000    1.000000
     54          0           0       -2.800000   -1.000000    1.000000
     55          0           0       -2.800000   -0.800000    1.000000
     56          0           0       -2.800000   -0.600000    1.000000
     57          0           0       -2.800000   -0.400000    1.000000
     58          0           0       -2.800000   -0.200000    1.000000
     59          0           0       -2.800000    0.000000    1.000000
     60          0           0       -2.800000    0.200000    1.000000
     61          0           0       -2.800000    0.400000    1.000000
     62          0           0       -2.800000    0.600000    1.000000
     63          0           0       -2.800000    0.800000    1.000000
     64          0           0       -2.800000    1.000000    1.000000
     65          0           0       -2.800000    1.200000    1.000000
     66          0           0       -2.800000    1.400000    1.000000
     67          0           0       -2.800000    1.600000    1.000000
     68          0           0       -2.800000    1.800000    1.000000
     69          0           0       -2.800000    2.000000    1.000000
     70          0           0       -2.800000    2.200000    1.000000
     71          0           0       -2.800000    2.400000    1.000000
     72          0           0       -2.800000    2.600000    1.000000
     73          0           0       -2.800000    2.800000    1.000000
     74          0           0       -2.800000    3.000000    1.000000
     75          0           0       -2.600000   -3.000000    1.000000
     76          0           0       -2.600000   -2.800000    1.000000
     77          0           0       -2.600000   -2.600000    1.000000
     78          0           0       -2.600000   -2.400000    1.000000
     79          0           0       -2.600000   -2.200000    1.000000
     80          0           0       -2.600000   -2.000000    1.000000
     81          0           0       -2.600000   -1.800000    1.000000
     82          0           0       -2.600000   -1.600000    1.000000
     83          0           0       -2.600000   -1.400000    1.000000
     84          0           0       -2.600000   -1.200000    1.000000
     85          0           0       -2.600000   -1.000000    1.000000
     86          0           0       -2.600000   -0.800000    1.000000
     87          0           0       -2.600000   -0.600000    1.000000
     88          0           0       -2.600000   -0.400000    1.000000
     89          0           0       -2.600000   -0.200000    1.000000
     90          0           0       -2.600000    0.000000    1.000000
     91          0           0       -2.600000    0.200000    1.000000
     92          0           0       -2.600000    0.400000    1.000000
     93          0           0       -2.600000    0.600000    1.000000
     94          0           0       -2.600000    0.800000    1.000000
     95          0           0       -2.600000    1.000000    1.000000
     96          0           0       -2.600000    1.200000    1.000000
     97          0           0       -2.600000    1.400000    1.000000
     98          0           0       -2.600000    1.600000    1.000000
     99          0           0       -2.600000    1.800000    1.000000
    100          0           0       -2.600000    2.000000    1.000000
    101          0           0       -2.600000    2.200000    1.000000
    102          0           0       -2.600000    2.400000    1.000000
    103          0           0       -2.600000    2.600000    1.000000
    104          0           0       -2.600000    2.800000    1.000000
    105          0           0       -2.600000    3.000000    1.000000
    106          0           0       -2.400000   -3.000000    1.000000
    107          0           0       -2.400000   -2.800000    1.000000
    108          0           0       -2.400000   -2.600000    1.000000
    109          0           0       -2.400000   -2.400000    1.000000
    110          0           0       -2.400000   -2.200000    1.000000
    111          0           0       -2.400000   -2.000000    1.000000
    112          0           0       -2.400000   -1.800000    1.000000
    113          0           0       -2.400000   -1.600000    1.000000
    114          0           0       -2.400000   -1.400000    1.000000
    115          0           0       -2.400000   -1.200000    1.000000
    116          0           0       -2.400000   -1.000000    1.000000
    117          0           0       -2.400000   -0.800000    1.000000
    118          0           0       -2.400000   -0.600000    1.000000
    119          0           0       -2.400000   -0.400000    1.000000
    120          0           0       -2.400000   -0.200000    1.000000
    121          0           0       -2.400000    0.000000    1.000000
    122          0           0       -2.400000    0.200000    1.000000
    123          0           0       -2.400000    0.400000    1.000000
    124          0           0       -2.400000    0.600000    1.000000
    125          0           0       -2.400000    0.800000    1.000000
    126          0           0       -2.400000    1.000000    1.000000
    127          0           0       -2.400000    1.200000    1.000000
    128          0           0       -2.400000    1.400000    1.000000
    129          0           0       -2.400000    1.600000    1.000000
    130          0           0       -2.400000    1.800000    1.000000
    131          0           0       -2.400000    2.000000    1.000000
    132          0           0       -2.400000    2.200000    1.000000
    133          0           0       -2.400000    2.400000    1.000000
    134          0           0       -2.400000    2.600000    1.000000
    135          0           0       -2.400000    2.800000    1.000000
    136          0           0       -2.400000    3.000000    1.000000
    137          0           0       -2.200000   -3.000000    1.000000
    138          0           0       -2.200000   -2.800000    1.000000
    139          0           0       -2.200000   -2.600000    1.000000
    140          0           0       -2.200000   -2.400000    1.000000
    141          0           0       -2.200000   -2.200000    1.000000
    142          0           0       -2.200000   -2.000000    1.000000
    143          0           0       -2.200000   -1.800000    1.000000
    144          0           0       -2.200000   -1.600000    1.000000
    145          0           0       -2.200000   -1.400000    1.000000
    146          0           0       -2.200000   -1.200000    1.000000
    147          0           0       -2.200000   -1.000000    1.000000
    148          0           0       -2.200000   -0.800000    1.000000
    149          0           0       -2.200000   -0.600000    1.000000
    150          0           0       -2.200000   -0.400000    1.000000
    151          0           0       -2.200000   -0.200000    1.000000
    152          0           0       -2.200000    0.000000    1.000000
    153          0           0       -2.200000    0.200000    1.000000
    154          0           0       -2.200000    0.400000    1.000000
    155          0           0       -2.200000    0.600000    1.000000
    156          0           0       -2.200000    0.800000    1.000000
    157          0           0       -2.200000    1.000000    1.000000
    158          0           0       -2.200000    1.200000    1.000000
    159          0           0       -2.200000    1.400000    1.000000
    160          0           0       -2.200000    1.600000    1.000000
    161          0           0       -2.200000    1.800000    1.000000
    162          0           0       -2.200000    2.000000    1.000000
    163          0           0       -2.200000    2.200000    1.000000
    164          0           0       -2.200000    2.400000    1.000000
    165          0           0       -2.200000    2.600000    1.000000
    166          0           0       -2.200000    2.800000    1.000000
    167          0           0       -2.200000    3.000000    1.000000
    168          0           0       -2.000000   -3.000000    1.000000
    169          0           0       -2.000000   -2.800000    1.000000
    170          0           0       -2.000000   -2.600000    1.000000
    171          0           0       -2.000000   -2.400000    1.000000
    172          0           0       -2.000000   -2.200000    1.000000
    173          0           0       -2.000000   -2.000000    1.000000
    174          0           0       -2.000000   -1.800000    1.000000
    175          0           0       -2.000000   -1.600000    1.000000
    176          0           0       -2.000000   -1.400000    1.000000
    177          0           0       -2.000000   -1.200000    1.000000
    178          0           0       -2.000000   -1.000000    1.000000
    179          0           0       -2.000000   -0.800000    1.000000
    180          0           0       -2.000000   -0.600000    1.000000
    181          0           0       -2.000000   -0.400000    1.000000
    182          0           0       -2.000000   -0.200000    1.000000
    183          0           0       -2.000000    0.000000    1.000000
    184          0           0       -2.000000    0.200000    1.000000
    185          0           0       -2.000000    0.400000    1.000000
    186          0           0       -2.000000    0.600000    1.000000
    187          0           0       -2.000000    0.800000    1.000000
    188          0           0       -2.000000    1.000000    1.000000
    189          0           0       -2.000000    1.200000    1.000000
    190          0           0       -2.000000    1.400000    1.000000
    191          0           0       -2.000000    1.600000    1.000000
    192          0           0       -2.000000    1.800000    1.000000
    193          0           0       -2.000000    2.000000    1.000000
    194          0           0       -2.000000    2.200000    1.000000
    195          0           0       -2.000000    2.400000    1.000000
    196          0           0       -2.000000    2.600000    1.000000
    197          0           0       -2.000000    2.800000    1.000000
    198          0           0       -2.000000    3.000000    1.000000
    199          0           0       -1.800000   -3.000000    1.000000
    200          0           0       -1.800000   -2.800000    1.000000
    201          0           0       -1.800000   -2.600000    1.000000
    202          0           0       -1.800000   -2.400000    1.000000
    203          0           0       -1.800000   -2.200000    1.000000
    204          0           0       -1.800000   -2.000000    1.000000
    205          0           0       -1.800000   -1.800000    1.000000
    206          0           0       -1.800000   -1.600000    1.000000
    207          0           0       -1.800000   -1.400000    1.000000
    208          0           0       -1.800000   -1.200000    1.000000
    209          0           0       -1.800000   -1.000000    1.000000
    210          0           0       -1.800000   -0.800000    1.000000
    211          0           0       -1.800000   -0.600000    1.000000
    212          0           0       -1.800000   -0.400000    1.000000
    213          0           0       -1.800000   -0.200000    1.000000
    214          0           0       -1.800000    0.000000    1.000000
    215          0           0       -1.800000    0.200000    1.000000
    216          0           0       -1.800000    0.400000    1.000000
    217          0           0       -1.800000    0.600000    1.000000
    218          0           0       -1.800000    0.800000    1.000000
    219          0           0       -1.800000    1.000000    1.000000
    220          0           0       -1.800000    1.200000    1.000000
    221          0           0       -1.800000    1.400000    1.000000
    222          0           0       -1.800000    1.600000    1.000000
    223          0           0       -1.800000    1.800000    1.000000
    224          0           0       -1.800000    2.000000    1.000000
    225          0           0       -1.800000    2.200000    1.000000
    226          0           0       -1.800000    2.400000    1.000000
    227          0           0       -1.800000    2.600000    1.000000
    228          0           0       -1.800000    2.800000    1.000000
    229          0           0       -1.800000    3.000000    1.000000
    230          0           0       -1.600000   -3.000000    1.000000
    231          0           0       -1.600000   -2.800000    1.000000
    232          0           0       -1.600000   -2.600000    1.000000
    233          0           0       -1.600000   -2.400000    1.000000
    234          0           0       -1.600000   -2.200000    1.000000
    235          0           0       -1.600000   -2.000000    1.000000
    236          0           0       -1.600000   -1.800000    1.000000
    237          0           0       -1.600000   -1.600000    1.000000
    238          0           0       -1.600000   -1.400000    1.000000
    239          0           0       -1.600000   -1.200000    1.000000
    240          0           0       -1.600000   -1.000000    1.000000
    241          0           0       -1.600000   -0.800000    1.000000
    242          0           0       -1.600000   -0.600000    1.000000
    243          0           0       -1.600000   -0.400000    1.000000
    244          0           0       -1.600000   -0.200000    1.000000
    245          0           0       -1.600000    0.000000    1.000000
    246          0           0       -1.600000    0.200000    1.000000
    247          0           0       -1.600000    0.400000    1.000000
    248          0           0       -1.600000    0.600000    1.000000
    249          0           0       -1.600000    0.800000    1.000000
    250          0           0       -1.600000    1.000000    1.000000
    251          0           0       -1.600000    1.200000    1.000000
    252          0           0       -1.600000    1.400000    1.000000
    253          0           0       -1.600000    1.600000    1.000000
    254          0           0       -1.600000    1.800000    1.000000
    255          0           0       -1.600000    2.000000    1.000000
    256          0           0       -1.600000    2.200000    1.000000
    257          0           0       -1.600000    2.400000    1.000000
    258          0           0       -1.600000    2.600000    1.000000
    259          0           0       -1.600000    2.800000    1.000000
    260          0           0       -1.600000    3.000000    1.000000
    261          0           0       -1.400000   -3.000000    1.000000
    262          0           0       -1.400000   -2.800000    1.000000
    263          0           0       -1.400000   -2.600000    1.000000
    264          0           0       -1.400000   -2.400000    1.000000
    265          0           0       -1.400000   -2.200000    1.000000
    266          0           0       -1.400000   -2.000000    1.000000
    267          0           0       -1.400000   -1.800000    1.000000
    268          0           0       -1.400000   -1.600000    1.000000
    269          0           0       -1.400000   -1.400000    1.000000
    270          0           0       -1.400000   -1.200000    1.000000
    271          0           0       -1.400000   -1.000000    1.000000
    272          0           0       -1.400000   -0.800000    1.000000
    273          0           0       -1.400000   -0.600000    1.000000
    274          0           0       -1.400000   -0.400000    1.000000
    275          0           0       -1.400000   -0.200000    1.000000
    276          0           0       -1.400000    0.000000    1.000000
    277          0           0       -1.400000    0.200000    1.000000
    278          0           0       -1.400000    0.400000    1.000000
    279          0           0       -1.400000    0.600000    1.000000
    280          0           0       -1.400000    0.800000    1.000000
    281          0           0       -1.400000    1.000000    1.000000
    282          0           0       -1.400000    1.200000    1.000000
    283          0           0       -1.400000    1.400000    1.000000
    284          0           0       -1.400000    1.600000    1.000000
    285          0           0       -1.400000    1.800000    1.000000
    286          0           0       -1.400000    2.000000    1.000000
    287          0           0       -1.400000    2.200000    1.000000
    288          0           0       -1.400000    2.400000    1.000000
    289          0           0       -1.400000    2.600000    1.000000
    290          0           0       -1.400000    2.800000    1.000000
    291          0           0       -1.400000    3.000000    1.000000
    292          0           0       -1.200000   -3.000000    1.000000
    293          0           0       -1.200000   -2.800000    1.000000
    294          0           0       -1.200000   -2.600000    1.000000
    295          0           0       -1.200000   -2.400000    1.000000
    296          0           0       -1.200000   -2.200000    1.000000
    297          0           0       -1.200000   -2.000000    1.000000
    298          0           0       -1.200000   -1.800000    1.000000
    299          0           0       -1.200000   -1.600000    1.000000
    300          0           0       -1.200000   -1.400000    1.000000
    301          0           0       -1.200000   -1.200000    1.000000
    302          0           0       -1.200000   -1.000000    1.000000
    303          0           0       -1.200000   -0.800000    1.000000
    304          0           0       -1.200000   -0.600000    1.000000
    305          0           0       -1.200000   -0.400000    1.000000
    306          0           0       -1.200000   -0.200000    1.000000
    307          0           0       -1.200000    0.000000    1.000000
    308          0           0       -1.200000    0.200000    1.000000
    309          0           0       -1.200000    0.400000    1.000000
    310          0           0       -1.200000    0.600000    1.000000
    311          0           0       -1.200000    0.800000    1.000000
    312          0           0       -1.200000    1.000000    1.000000
    313          0           0       -1.200000    1.200000    1.000000
    314          0           0       -1.200000    1.400000    1.000000
    315          0           0       -1.200000    1.600000    1.000000
    316          0           0       -1.200000    1.800000    1.000000
    317          0           0       -1.200000    2.000000    1.000000
    318          0           0       -1.200000    2.200000    1.000000
    319          0           0       -1.200000    2.400000    1.000000
    320          0           0       -1.200000    2.600000    1.000000
    321          0           0       -1.200000    2.800000    1.000000
    322          0           0       -1.200000    3.000000    1.000000
    323          0           0       -1.000000   -3.000000    1.000000
    324          0           0       -1.000000   -2.800000    1.000000
    325          0           0       -1.000000   -2.600000    1.000000
    326          0           0       -1.000000   -2.400000    1.000000
    327          0           0       -1.000000   -2.200000    1.000000
    328          0           0       -1.000000   -2.000000    1.000000
    329          0           0       -1.000000   -1.800000    1.000000
    330          0           0       -1.000000   -1.600000    1.000000
    331          0           0       -1.000000   -1.400000    1.000000
    332          0           0       -1.000000   -1.200000    1.000000
    333          0           0       -1.000000   -1.000000    1.000000
    334          0           0       -1.000000   -0.800000    1.000000
    335          0           0       -1.000000   -0.600000    1.000000
    336          0           0       -1.000000   -0.400000    1.000000
    337          0           0       -1.000000   -0.200000    1.000000
    338          0           0       -1.000000    0.000000    1.000000
    339          0           0       -1.000000    0.200000    1.000000
    340          0           0       -1.000000    0.400000    1.000000
    341          0           0       -1.000000    0.600000    1.000000
    342          0           0       -1.000000    0.800000    1.000000
    343          0           0       -1.000000    1.000000    1.000000
    344          0           0       -1.000000    1.200000    1.000000
    345          0           0       -1.000000    1.400000    1.000000
    346          0           0       -1.000000    1.600000    1.000000
    347          0           0       -1.000000    1.800000    1.000000
    348          0           0       -1.000000    2.000000    1.000000
    349          0           0       -1.000000    2.200000    1.000000
    350          0           0       -1.000000    2.400000    1.000000
    351          0           0       -1.000000    2.600000    1.000000
    352          0           0       -1.000000    2.800000    1.000000
    353          0           0       -1.000000    3.000000    1.000000
    354          0           0       -0.800000   -3.000000    1.000000
    355          0           0       -0.800000   -2.800000    1.000000
    356          0           0       -0.800000   -2.600000    1.000000
    357          0           0       -0.800000   -2.400000    1.000000
    358          0           0       -0.800000   -2.200000    1.000000
    359          0           0       -0.800000   -2.000000    1.000000
    360          0           0       -0.800000   -1.800000    1.000000
    361          0           0       -0.800000   -1.600000    1.000000
    362          0           0       -0.800000   -1.400000    1.000000
    363          0           0       -0.800000   -1.200000    1.000000
    364          0           0       -0.800000   -1.000000    1.000000
    365          0           0       -0.800000   -0.800000    1.000000
    366          0           0       -0.800000   -0.600000    1.000000
    367          0           0       -0.800000   -0.400000    1.000000
    368          0           0       -0.800000   -0.200000    1.000000
    369          0           0       -0.800000    0.000000    1.000000
    370          0           0       -0.800000    0.200000    1.000000
    371          0           0       -0.800000    0.400000    1.000000
    372          0           0       -0.800000    0.600000    1.000000
    373          0           0       -0.800000    0.800000    1.000000
    374          0           0       -0.800000    1.000000    1.000000
    375          0           0       -0.800000    1.200000    1.000000
    376          0           0       -0.800000    1.400000    1.000000
    377          0           0       -0.800000    1.600000    1.000000
    378          0           0       -0.800000    1.800000    1.000000
    379          0           0       -0.800000    2.000000    1.000000
    380          0           0       -0.800000    2.200000    1.000000
    381          0           0       -0.800000    2.400000    1.000000
    382          0           0       -0.800000    2.600000    1.000000
    383          0           0       -0.800000    2.800000    1.000000
    384          0           0       -0.800000    3.000000    1.000000
    385          0           0       -0.600000   -3.000000    1.000000
    386          0           0       -0.600000   -2.800000    1.000000
    387          0           0       -0.600000   -2.600000    1.000000
    388          0           0       -0.600000   -2.400000    1.000000
    389          0           0       -0.600000   -2.200000    1.000000
    390          0           0       -0.600000   -2.000000    1.000000
    391          0           0       -0.600000   -1.800000    1.000000
    392          0           0       -0.600000   -1.600000    1.000000
    393          0           0       -0.600000   -1.400000    1.000000
    394          0           0       -0.600000   -1.200000    1.000000
    395          0           0       -0.600000   -1.000000    1.000000
    396          0           0       -0.600000   -0.800000    1.000000
    397          0           0       -0.600000   -0.600000    1.000000
    398          0           0       -0.600000   -0.400000    1.000000
    399          0           0       -0.600000   -0.200000    1.000000
    400          0           0       -0.600000    0.000000    1.000000
    401          0           0       -0.600000    0.200000    1.000000
    402          0           0       -0.600000    0.400000    1.000000
    403          0           0       -0.600000    0.600000    1.000000
    404          0           0       -0.600000    0.800000    1.000000
    405          0           0       -0.600000    1.000000    1.000000
    406          0           0       -0.600000    1.200000    1.000000
    407          0           0       -0.600000    1.400000    1.000000
    408          0           0       -0.600000    1.600000    1.000000
    409          0           0       -0.600000    1.800000    1.000000
    410          0           0       -0.600000    2.000000    1.000000
    411          0           0       -0.600000    2.200000    1.000000
[...]
   932  Bq   0.000000
   933  Bq   0.000000
   934  Bq   0.000000
   935  Bq   0.000000
   936  Bq   0.000000
   937  Bq   0.000000
   938  Bq   0.000000
   939  Bq   0.000000
   940  Bq   0.000000
   941  Bq   0.000000
   942  Bq   0.000000
   943  Bq   0.000000
   944  Bq   0.000000
   945  Bq   0.000000
   946  Bq   0.000000
   947  Bq   0.000000
   948  Bq   0.000000
   949  Bq   0.000000
   950  Bq   0.000000
   951  Bq   0.000000
   952  Bq   0.000000
   953  Bq   0.000000
   954  Bq   0.000000
   955  Bq   0.000000
   956  Bq   0.000000
   957  Bq   0.000000
   958  Bq   0.000000
   959  Bq   0.000000
   960  Bq   0.000000
   961  Bq   0.000000
   962  Bq   0.000000
   963  Bq   0.000000
   964  Bq   0.000000
   965  Bq   0.000000
   966  Bq   0.000000
   967  Bq   0.000000
   968  Bq   0.000000
   969  Bq   0.000000
   970  Bq   0.000000
   971  Bq   0.000000
   972  Bq   0.000000
   973  Bq   0.000000
 Electronic spatial extent (au):  <R**2>=            460.2158
 Charge=              0.0000 electrons
 Dipole moment (field-independent basis, Debye):
    X=             -0.0000    Y=              0.0000    Z=             -0.0000  Tot=              0.0000
 Quadrupole moment (field-independent basis, Debye-Ang):
   XX=            -32.1041   YY=            -32.1036   ZZ=            -39.9536
   XY=             -0.0000   XZ=             -0.0000   YZ=             -0.0000
 Traceless Quadrupole moment (field-independent basis, Debye-Ang):
   XX=              2.6163   YY=              2.6169   ZZ=             -5.2332
   XY=             -0.0000   XZ=             -0.0000   YZ=             -0.0000
 Octapole moment (field-independent basis, Debye-Ang**2):
  XXX=             -0.0000  YYY=              0.0000  ZZZ=             -0.0000  XYY=             -0.0000
  XXY=              0.0000  XXZ=             -0.0000  XZZ=             -0.0000  YZZ=              0.0000
  YYZ=              0.0000  XYZ=             -0.0000
 Hexadecapole moment (field-independent basis, Debye-Ang**3):
 XXXX=           -276.4119 YYYY=           -276.4180 ZZZZ=            -48.3436 XXXY=             -0.0000
 XXXZ=             -0.0000 YYYX=              0.0000 YYYZ=              0.0000 ZZZX=             -0.0000
 ZZZY=             -0.0000 XXYY=            -92.1387 XXZZ=            -64.4070 YYZZ=            -64.4084
 XXYZ=             -0.0000 YYXZ=             -0.0000 ZZXY=              0.0000
 N-N= 2.032265414061D+02 E-N=-9.448425251726D+02  KE= 2.310085445546D+02

 Test job not archived.
 1\1\GINC-NOTCH138\SP\RB3LYP\def2TZVP\C6H6\U6048529\30-Oct-2023\0\\#N S
 CF=(qc,symm) NMR IOp(10/46=1) geom=connectivity B3LYP def2TZVP\\commen
 t line\\0,1\C,0,0.,1.397,0.\C,0,1.2098,0.6985,0.\C,0,1.2098,-0.6985,0.
 \C,0,0.,-1.397,0.\C,0,-1.2098,-0.6985,0.\C,0,-1.2098,0.6985,0.\H,0,0.,
 2.481,0.\H,0,2.1486,1.2405,0.\H,0,2.1486,-1.2405,0.\H,0,0.,-2.481,0.\H
 ,0,-2.1486,-1.2405,0.\H,0,-2.1486,1.2405,0.\Bq,0,-3.,-3.,1.\Bq,0,-3.,-
 2.8,1.\Bq,0,-3.,-2.6,1.\Bq,0,-3.,-2.4,1.\Bq,0,-3.,-2.2,1.\Bq,0,-3.,-2.
 ,1.\Bq,0,-3.,-1.8,1.\Bq,0,-3.,-1.6,1.\Bq,0,-3.,-1.4,1.\Bq,0,-3.,-1.2,1
 .\Bq,0,-3.,-1.,1.\Bq,0,-3.,-0.8,1.\Bq,0,-3.,-0.6,1.\Bq,0,-3.,-0.4,1.\B
 q,0,-3.,-0.2,1.\Bq,0,-3.,0.,1.\Bq,0,-3.,0.2,1.\Bq,0,-3.,0.4,1.\Bq,0,-3
 .,0.6,1.\Bq,0,-3.,0.8,1.\Bq,0,-3.,1.,1.\Bq,0,-3.,1.2,1.\Bq,0,-3.,1.4,1
 .\Bq,0,-3.,1.6,1.\Bq,0,-3.,1.8,1.\Bq,0,-3.,2.,1.\Bq,0,-3.,2.2,1.\Bq,0,
 -3.,2.4,1.\Bq,0,-3.,2.6,1.\Bq,0,-3.,2.8,1.\Bq,0,-3.,3.,1.\Bq,0,-2.8,-3
 .,1.\Bq,0,-2.8,-2.8,1.\Bq,0,-2.8,-2.6,1.\Bq,0,-2.8,-2.4,1.\Bq,0,-2.8,-
 2.2,1.\Bq,0,-2.8,-2.,1.\Bq,0,-2.8,-1.8,1.\Bq,0,-2.8,-1.6,1.\Bq,0,-2.8,
 -1.4,1.\Bq,0,-2.8,-1.2,1.\Bq,0,-2.8,-1.,1.\Bq,0,-2.8,-0.8,1.\Bq,0,-2.8
 ,-0.6,1.\Bq,0,-2.8,-0.4,1.\Bq,0,-2.8,-0.2,1.\Bq,0,-2.8,0.,1.\Bq,0,-2.8
 ,0.2,1.\Bq,0,-2.8,0.4,1.\Bq,0,-2.8,0.6,1.\Bq,0,-2.8,0.8,1.\Bq,0,-2.8,1
 .,1.\Bq,0,-2.8,1.2,1.\Bq,0,-2.8,1.4,1.\Bq,0,-2.8,1.6,1.\Bq,0,-2.8,1.8,
 1.\Bq,0,-2.8,2.,1.\Bq,0,-2.8,2.2,1.\Bq,0,-2.8,2.4,1.\Bq,0,-2.8,2.6,1.\
 Bq,0,-2.8,2.8,1.\Bq,0,-2.8,3.,1.\Bq,0,-2.6,-3.,1.\Bq,0,-2.6,-2.8,1.\Bq
 ,0,-2.6,-2.6,1.\Bq,0,-2.6,-2.4,1.\Bq,0,-2.6,-2.2,1.\Bq,0,-2.6,-2.,1.\B
 q,0,-2.6,-1.8,1.\Bq,0,-2.6,-1.6,1.\Bq,0,-2.6,-1.4,1.\Bq,0,-2.6,-1.2,1.
 \Bq,0,-2.6,-1.,1.\Bq,0,-2.6,-0.8,1.\Bq,0,-2.6,-0.6,1.\Bq,0,-2.6,-0.4,1
 .\Bq,0,-2.6,-0.2,1.\Bq,0,-2.6,0.,1.\Bq,0,-2.6,0.2,1.\Bq,0,-2.6,0.4,1.\
 Bq,0,-2.6,0.6,1.\Bq,0,-2.6,0.8,1.\Bq,0,-2.6,1.,1.\Bq,0,-2.6,1.2,1.\Bq,
 0,-2.6,1.4,1.\Bq,0,-2.6,1.6,1.\Bq,0,-2.6,1.8,1.\Bq,0,-2.6,2.,1.\Bq,0,-
 2.6,2.2,1.\Bq,0,-2.6,2.4,1.\Bq,0,-2.6,2.6,1.\Bq,0,-2.6,2.8,1.\Bq,0,-2.
 6,3.,1.\Bq,0,-2.4,-3.,1.\Bq,0,-2.4,-2.8,1.\Bq,0,-2.4,-2.6,1.\Bq,0,-2.4
 ,-2.4,1.\Bq,0,-2.4,-2.2,1.\Bq,0,-2.4,-2.,1.\Bq,0,-2.4,-1.8,1.\Bq,0,-2.
 4,-1.6,1.\Bq,0,-2.4,-1.4,1.\Bq,0,-2.4,-1.2,1.\Bq,0,-2.4,-1.,1.\Bq,0,-2
 .4,-0.8,1.\Bq,0,-2.4,-0.6,1.\Bq,0,-2.4,-0.4,1.\Bq,0,-2.4,-0.2,1.\Bq,0,
 -2.4,0.,1.\Bq,0,-2.4,0.2,1.\Bq,0,-2.4,0.4,1.\Bq,0,-2.4,0.6,1.\Bq,0,-2.
 4,0.8,1.\Bq,0,-2.4,1.,1.\Bq,0,-2.4,1.2,1.\Bq,0,-2.4,1.4,1.\Bq,0,-2.4,1
 .6,1.\Bq,0,-2.4,1.8,1.\Bq,0,-2.4,2.,1.\Bq,0,-2.4,2.2,1.\Bq,0,-2.4,2.4,
 1.\Bq,0,-2.4,2.6,1.\Bq,0,-2.4,2.8,1.\Bq,0,-2.4,3.,1.\Bq,0,-2.2,-3.,1.\
 Bq,0,-2.2,-2.8,1.\Bq,0,-2.2,-2.6,1.\Bq,0,-2.2,-2.4,1.\Bq,0,-2.2,-2.2,1
 .\Bq,0,-2.2,-2.,1.\Bq,0,-2.2,-1.8,1.\Bq,0,-2.2,-1.6,1.\Bq,0,-2.2,-1.4,
 1.\Bq,0,-2.2,-1.2,1.\Bq,0,-2.2,-1.,1.\Bq,0,-2.2,-0.8,1.\Bq,0,-2.2,-0.6
 ,1.\Bq,0,-2.2,-0.4,1.\Bq,0,-2.2,-0.2,1.\Bq,0,-2.2,0.,1.\Bq,0,-2.2,0.2,
 1.\Bq,0,-2.2,0.4,1.\Bq,0,-2.2,0.6,1.\Bq,0,-2.2,0.8,1.\Bq,0,-2.2,1.,1.\
 Bq,0,-2.2,1.2,1.\Bq,0,-2.2,1.4,1.\Bq,0,-2.2,1.6,1.\Bq,0,-2.2,1.8,1.\Bq
 ,0,-2.2,2.,1.\Bq,0,-2.2,2.2,1.\Bq,0,-2.2,2.4,1.\Bq,0,-2.2,2.6,1.\Bq,0,
 -2.2,2.8,1.\Bq,0,-2.2,3.,1.\Bq,0,-2.,-3.,1.\Bq,0,-2.,-2.8,1.\Bq,0,-2.,
 -2.6,1.\Bq,0,-2.,-2.4,1.\Bq,0,-2.,-2.2,1.\Bq,0,-2.,-2.,1.\Bq,0,-2.,-1.
 8,1.\Bq,0,-2.,-1.6,1.\Bq,0,-2.,-1.4,1.\Bq,0,-2.,-1.2,1.\Bq,0,-2.,-1.,1
 .\Bq,0,-2.,-0.8,1.\Bq,0,-2.,-0.6,1.\Bq,0,-2.,-0.4,1.\Bq,0,-2.,-0.2,1.\
 Bq,0,-2.,0.,1.\Bq,0,-2.,0.2,1.\Bq,0,-2.,0.4,1.\Bq,0,-2.,0.6,1.\Bq,0,-2
 .,0.8,1.\Bq,0,-2.,1.,1.\Bq,0,-2.,1.2,1.\Bq,0,-2.,1.4,1.\Bq,0,-2.,1.6,1
 .\Bq,0,-2.,1.8,1.\Bq,0,-2.,2.,1.\Bq,0,-2.,2.2,1.\Bq,0,-2.,2.4,1.\Bq,0,
 -2.,2.6,1.\Bq,0,-2.,2.8,1.\Bq,0,-2.,3.,1.\Bq,0,-1.8,-3.,1.\Bq,0,-1.8,-
 2.8,1.\Bq,0,-1.8,-2.6,1.\Bq,0,-1.8,-2.4,1.\Bq,0,-1.8,-2.2,1.\Bq,0,-1.8
 ,-2.,1.\Bq,0,-1.8,-1.8,1.\Bq,0,-1.8,-1.6,1.\Bq,0,-1.8,-1.4,1.\Bq,0,-1.
 8,-1.2,1.\Bq,0,-1.8,-1.,1.\Bq,0,-1.8,-0.8,1.\Bq,0,-1.8,-0.6,1.\Bq,0,-1
 .8,-0.4,1.\Bq,0,-1.8,-0.2,1.\Bq,0,-1.8,0.,1.\Bq,0,-1.8,0.2,1.\Bq,0,-1.
 8,0.4,1.\Bq,0,-1.8,0.6,1.\Bq,0,-1.8,0.8,1.\Bq,0,-1.8,1.,1.\Bq,0,-1.8,1
 .2,1.\Bq,0,-1.8,1.4,1.\Bq,0,-1.8,1.6,1.\Bq,0,-1.8,1.8,1.\Bq,0,-1.8,2.,
 1.\Bq,0,-1.8,2.2,1.\Bq,0,-1.8,2.4,1.\Bq,0,-1.8,2.6,1.\Bq,0,-1.8,2.8,1.
 \Bq,0,-1.8,3.,1.\Bq,0,-1.6,-3.,1.\Bq,0,-1.6,-2.8,1.\Bq,0,-1.6,-2.6,1.\
 Bq,0,-1.6,-2.4,1.\Bq,0,-1.6,-2.2,1.\Bq,0,-1.6,-2.,1.\Bq,0,-1.6,-1.8,1.
 \Bq,0,-1.6,-1.6,1.\Bq,0,-1.6,-1.4,1.\Bq,0,-1.6,-1.2,1.\Bq,0,-1.6,-1.,1
 .\Bq,0,-1.6,-0.8,1.\Bq,0,-1.6,-0.6,1.\Bq,0,-1.6,-0.4,1.\Bq,0,-1.6,-0.2
 ,1.\Bq,0,-1.6,0.,1.\Bq,0,-1.6,0.2,1.\Bq,0,-1.6,0.4,1.\Bq,0,-1.6,0.6,1.
 \Bq,0,-1.6,0.8,1.\Bq,0,-1.6,1.,1.\Bq,0,-1.6,1.2,1.\Bq,0,-1.6,1.4,1.\Bq
 ,0,-1.6,1.6,1.\Bq,0,-1.6,1.8,1.\Bq,0,-1.6,2.,1.\Bq,0,-1.6,2.2,1.\Bq,0,
 -1.6,2.4,1.\Bq,0,-1.6,2.6,1.\Bq,0,-1.6,2.8,1.\Bq,0,-1.6,3.,1.\Bq,0,-1.
 4,-3.,1.\Bq,0,-1.4,-2.8,1.\Bq,0,-1.4,-2.6,1.\Bq,0,-1.4,-2.4,1.\Bq,0,-1
 .4,-2.2,1.\Bq,0,-1.4,-2.,1.\Bq,0,-1.4,-1.8,1.\Bq,0,-1.4,-1.6,1.\Bq,0,-
 1.4,-1.4,1.\Bq,0,-1.4,-1.2,1.\Bq,0,-1.4,-1.,1.\Bq,0,-1.4,-0.8,1.\Bq,0,
 -1.4,-0.6,1.\Bq,0,-1.4,-0.4,1.\Bq,0,-1.4,-0.2,1.\Bq,0,-1.4,0.,1.\Bq,0,
 -1.4,0.2,1.\Bq,0,-1.4,0.4,1.\Bq,0,-1.4,0.6,1.\Bq,0,-1.4,0.8,1.\Bq,0,-1
 .4,1.,1.\Bq,0,-1.4,1.2,1.\Bq,0,-1.4,1.4,1.\Bq,0,-1.4,1.6,1.\Bq,0,-1.4,
 1.8,1.\Bq,0,-1.4,2.,1.\Bq,0,-1.4,2.2,1.\Bq,0,-1.4,2.4,1.\Bq,0,-1.4,2.6
 ,1.\Bq,0,-1.4,2.8,1.\Bq,0,-1.4,3.,1.\Bq,0,-1.2,-3.,1.\Bq,0,-1.2,-2.8,1
 .\Bq,0,-1.2,-2.6,1.\Bq,0,-1.2,-2.4,1.\Bq,0,-1.2,-2.2,1.\Bq,0,-1.2,-2.,
 1.\Bq,0,-1.2,-1.8,1.\Bq,0,-1.2,-1.6,1.\Bq,0,-1.2,-1.4,1.\Bq,0,-1.2,-1.
 2,1.\Bq,0,-1.2,-1.,1.\Bq,0,-1.2,-0.8,1.\Bq,0,-1.2,-0.6,1.\Bq,0,-1.2,-0
 .4,1.\Bq,0,-1.2,-0.2,1.\Bq,0,-1.2,0.,1.\Bq,0,-1.2,0.2,1.\Bq,0,-1.2,0.4
 ,1.\Bq,0,-1.2,0.6,1.\Bq,0,-1.2,0.8,1.\Bq,0,-1.2,1.,1.\Bq,0,-1.2,1.2,1.
 \Bq,0,-1.2,1.4,1.\Bq,0,-1.2,1.6,1.\Bq,0,-1.2,1.8,1.\Bq,0,-1.2,2.,1.\Bq
 ,0,-1.2,2.2,1.\Bq,0,-1.2,2.4,1.\Bq,0,-1.2,2.6,1.\Bq,0,-1.2,2.8,1.\Bq,0
 ,-1.2,3.,1.\Bq,0,-1.,-3.,1.\Bq,0,-1.,-2.8,1.\Bq,0,-1.,-2.6,1.\Bq,0,-1.
 ,-2.4,1.\Bq,0,-1.,-2.2,1.\Bq,0,-1.,-2.,1.\Bq,0,-1.,-1.8,1.\Bq,0,-1.,-1
 .6,1.\Bq,0,-1.,-1.4,1.\Bq,0,-1.,-1.2,1.\Bq,0,-1.,-1.,1.\Bq,0,-1.,-0.8,
 1.\Bq,0,-1.,-0.6,1.\Bq,0,-1.,-0.4,1.\Bq,0,-1.,-0.2,1.\Bq,0,-1.,0.,1.\B
 q,0,-1.,0.2,1.\Bq,0,-1.,0.4,1.\Bq,0,-1.,0.6,1.\Bq,0,-1.,0.8,1.\Bq,0,-1
 .,1.,1.\Bq,0,-1.,1.2,1.\Bq,0,-1.,1.4,1.\Bq,0,-1.,1.6,1.\Bq,0,-1.,1.8,1
 .\Bq,0,-1.,2.,1.\Bq,0,-1.,2.2,1.\Bq,0,-1.,2.4,1.\Bq,0,-1.,2.6,1.\Bq,0,
 -1.,2.8,1.\Bq,0,-1.,3.,1.\Bq,0,-0.8,-3.,1.\Bq,0,-0.8,-2.8,1.\Bq,0,-0.8
 ,-2.6,1.\Bq,0,-0.8,-2.4,1.\Bq,0,-0.8,-2.2,1.\Bq,0,-0.8,-2.,1.\Bq,0,-0.
 8,-1.8,1.\Bq,0,-0.8,-1.6,1.\Bq,0,-0.8,-1.4,1.\Bq,0,-0.8,-1.2,1.\Bq,0,-
 0.8,-1.,1.\Bq,0,-0.8,-0.8,1.\Bq,0,-0.8,-0.6,1.\Bq,0,-0.8,-0.4,1.\Bq,0,
 -0.8,-0.2,1.\Bq,0,-0.8,0.,1.\Bq,0,-0.8,0.2,1.\Bq,0,-0.8,0.4,1.\Bq,0,-0
 .8,0.6,1.\Bq,0,-0.8,0.8,1.\Bq,0,-0.8,1.,1.\Bq,0,-0.8,1.2,1.\Bq,0,-0.8,
 1.4,1.\Bq,0,-0.8,1.6,1.\Bq,0,-0.8,1.8,1.\Bq,0,-0.8,2.,1.\Bq,0,-0.8,2.2
 ,1.\Bq,0,-0.8,2.4,1.\Bq,0,-0.8,2.6,1.\Bq,0,-0.8,2.8,1.\Bq,0,-0.8,3.,1.
 \Bq,0,-0.6,-3.,1.\Bq,0,-0.6,-2.8,1.\Bq,0,-0.6,-2.6,1.\Bq,0,-0.6,-2.4,1
 .\Bq,0,-0.6,-2.2,1.\Bq,0,-0.6,-2.,1.\Bq,0,-0.6,-1.8,1.\Bq,0,-0.6,-1.6,
 1.\Bq,0,-0.6,-1.4,1.\Bq,0,-0.6,-1.2,1.\Bq,0,-0.6,-1.,1.\Bq,0,-0.6,-0.8
 ,1.\Bq,0,-0.6,-0.6,1.\Bq,0,-0.6,-0.4,1.\Bq,0,-0.6,-0.2,1.\Bq,0,-0.6,0.
 ,1.\Bq,0,-0.6,0.2,1.\Bq,0,-0.6,0.4,1.\Bq,0,-0.6,0.6,1.\Bq,0,-0.6,0.8,1
 .\Bq,0,-0.6,1.,1.\Bq,0,-0.6,1.2,1.\Bq,0,-0.6,1.4,1.\Bq,0,-0.6,1.6,1.\B
 q,0,-0.6,1.8,1.\Bq,0,-0.6,2.,1.\Bq,0,-0.6,2.2,1.\Bq,0,-0.6,2.4,1.\Bq,0
 ,-0.6,2.6,1.\Bq,0,-0.6,2.8,1.\Bq,0,-0.6,3.,1.\Bq,0,-0.4,-3.,1.\Bq,0,-0
 .4,-2.8,1.\Bq,0,-0.4,-2.6,1.\Bq,0,-0.4,-2.4,1.\Bq,0,-0.4,-2.2,1.\Bq,0,
 -0.4,-2.,1.\Bq,0,-0.4,-1.8,1.\Bq,0,-0.4,-1.6,1.\Bq,0,-0.4,-1.4,1.\Bq,0
 ,-0.4,-1.2,1.\Bq,0,-0.4,-1.,1.\Bq,0,-0.4,-0.8,1.\Bq,0,-0.4,-0.6,1.\Bq,
 0,-0.4,-0.4,1.\Bq,0,-0.4,-0.2,1.\Bq,0,-0.4,0.,1.\Bq,0,-0.4,0.2,1.\Bq,0
 ,-0.4,0.4,1.\Bq,0,-0.4,0.6,1.\Bq,0,-0.4,0.8,1.\Bq,0,-0.4,1.,1.\Bq,0,-0
 .4,1.2,1.\Bq,0,-0.4,1.4,1.\Bq,0,-0.4,1.6,1.\Bq,0,-0.4,1.8,1.\Bq,0,-0.4
 ,2.,1.\Bq,0,-0.4,2.2,1.\Bq,0,-0.4,2.4,1.\Bq,0,-0.4,2.6,1.\Bq,0,-0.4,2.
 8,1.\Bq,0,-0.4,3.,1.\Bq,0,-0.2,-3.,1.\Bq,0,-0.2,-2.8,1.\Bq,0,-0.2,-2.6
 ,1.\Bq,0,-0.2,-2.4,1.\Bq,0,-0.2,-2.2,1.\Bq,0,-0.2,-2.,1.\Bq,0,-0.2,-1.
 8,1.\Bq,0,-0.2,-1.6,1.\Bq,0,-0.2,-1.4,1.\Bq,0,-0.2,-1.2,1.\Bq,0,-0.2,-
 1.,1.\Bq,0,-0.2,-0.8,1.\Bq,0,-0.2,-0.6,1.\Bq,0,-0.2,-0.4,1.\Bq,0,-0.2,
 -0.2,1.\Bq,0,-0.2,0.,1.\Bq,0,-0.2,0.2,1.\Bq,0,-0.2,0.4,1.\Bq,0,-0.2,0.
 6,1.\Bq,0,-0.2,0.8,1.\Bq,0,-0.2,1.,1.\Bq,0,-0.2,1.2,1.\Bq,0,-0.2,1.4,1
 .\Bq,0,-0.2,1.6,1.\Bq,0,-0.2,1.8,1.\Bq,0,-0.2,2.,1.\Bq,0,-0.2,2.2,1.\B
 q,0,-0.2,2.4,1.\Bq,0,-0.2,2.6,1.\Bq,0,-0.2,2.8,1.\Bq,0,-0.2,3.,1.\Bq,0
 ,0.,-3.,1.\Bq,0,0.,-2.8,1.\Bq,0,0.,-2.6,1.\Bq,0,0.,-2.4,1.\Bq,0,0.,-2.
 2,1.\Bq,0,0.,-2.,1.\Bq,0,0.,-1.8,1.\Bq,0,0.,-1.6,1.\Bq,0,0.,-1.4,1.\Bq
 ,0,0.,-1.2,1.\Bq,0,0.,-1.,1.\Bq,0,0.,-0.8,1.\Bq,0,0.,-0.6,1.\Bq,0,0.,-
 0.4,1.\Bq,0,0.,-0.2,1.\Bq,0,0.,0.,1.\Bq,0,0.,0.2,1.\Bq,0,0.,0.4,1.\Bq,
 0,0.,0.6,1.\Bq,0,0.,0.8,1.\Bq,0,0.,1.,1.\Bq,0,0.,1.2,1.\Bq,0,0.,1.4,1.
 \Bq,0,0.,1.6,1.\Bq,0,0.,1.8,1.\Bq,0,0.,2.,1.\Bq,0,0.,2.2,1.\Bq,0,0.,2.
 4,1.\Bq,0,0.,2.6,1.\Bq,0,0.,2.8,1.\Bq,0,0.,3.,1.\Bq,0,0.2,-3.,1.\Bq,0,
 0.2,-2.8,1.\Bq,0,0.2,-2.6,1.\Bq,0,0.2,-2.4,1.\Bq,0,0.2,-2.2,1.\Bq,0,0.
 2,-2.,1.\Bq,0,0.2,-1.8,1.\Bq,0,0.2,-1.6,1.\Bq,0,0.2,-1.4,1.\Bq,0,0.2,-
 1.2,1.\Bq,0,0.2,-1.,1.\Bq,0,0.2,-0.8,1.\Bq,0,0.2,-0.6,1.\Bq,0,0.2,-0.4
 ,1.\Bq,0,0.2,-0.2,1.\Bq,0,0.2,0.,1.\Bq,0,0.2,0.2,1.\Bq,0,0.2,0.4,1.\Bq
 ,0,0.2,0.6,1.\Bq,0,0.2,0.8,1.\Bq,0,0.2,1.,1.\Bq,0,0.2,1.2,1.\Bq,0,0.2,
 1.4,1.\Bq,0,0.2,1.6,1.\Bq,0,0.2,1.8,1.\Bq,0,0.2,2.,1.\Bq,0,0.2,2.2,1.\
 Bq,0,0.2,2.4,1.\Bq,0,0.2,2.6,1.\Bq,0,0.2,2.8,1.\Bq,0,0.2,3.,1.\Bq,0,0.
 4,-3.,1.\Bq,0,0.4,-2.8,1.\Bq,0,0.4,-2.6,1.\Bq,0,0.4,-2.4,1.\Bq,0,0.4,-
 2.2,1.\Bq,0,0.4,-2.,1.\Bq,0,0.4,-1.8,1.\Bq,0,0.4,-1.6,1.\Bq,0,0.4,-1.4
 ,1.\Bq,0,0.4,-1.2,1.\Bq,0,0.4,-1.,1.\Bq,0,0.4,-0.8,1.\Bq,0,0.4,-0.6,1.
 \Bq,0,0.4,-0.4,1.\Bq,0,0.4,-0.2,1.\Bq,0,0.4,0.,1.\Bq,0,0.4,0.2,1.\Bq,0
 ,0.4,0.4,1.\Bq,0,0.4,0.6,1.\Bq,0,0.4,0.8,1.\Bq,0,0.4,1.,1.\Bq,0,0.4,1.
 2,1.\Bq,0,0.4,1.4,1.\Bq,0,0.4,1.6,1.\Bq,0,0.4,1.8,1.\Bq,0,0.4,2.,1.\Bq
 ,0,0.4,2.2,1.\Bq,0,0.4,2.4,1.\Bq,0,0.4,2.6,1.\Bq,0,0.4,2.8,1.\Bq,0,0.4
 ,3.,1.\Bq,0,0.6,-3.,1.\Bq,0,0.6,-2.8,1.\Bq,0,0.6,-2.6,1.\Bq,0,0.6,-2.4
 ,1.\Bq,0,0.6,-2.2,1.\Bq,0,0.6,-2.,1.\Bq,0,0.6,-1.8,1.\Bq,0,0.6,-1.6,1.
 \Bq,0,0.6,-1.4,1.\Bq,0,0.6,-1.2,1.\Bq,0,0.6,-1.,1.\Bq,0,0.6,-0.8,1.\Bq
 ,0,0.6,-0.6,1.\Bq,0,0.6,-0.4,1.\Bq,0,0.6,-0.2,1.\Bq,0,0.6,0.,1.\Bq,0,0
 .6,0.2,1.\Bq,0,0.6,0.4,1.\Bq,0,0.6,0.6,1.\Bq,0,0.6,0.8,1.\Bq,0,0.6,1.,
 1.\Bq,0,0.6,1.2,1.\Bq,0,0.6,1.4,1.\Bq,0,0.6,1.6,1.\Bq,0,0.6,1.8,1.\Bq,
 0,0.6,2.,1.\Bq,0,0.6,2.2,1.\Bq,0,0.6,2.4,1.\Bq,0,0.6,2.6,1.\Bq,0,0.6,2
 .8,1.\Bq,0,0.6,3.,1.\Bq,0,0.8,-3.,1.\Bq,0,0.8,-2.8,1.\Bq,0,0.8,-2.6,1.
 \Bq,0,0.8,-2.4,1.\Bq,0,0.8,-2.2,1.\Bq,0,0.8,-2.,1.\Bq,0,0.8,-1.8,1.\Bq
 ,0,0.8,-1.6,1.\Bq,0,0.8,-1.4,1.\Bq,0,0.8,-1.2,1.\Bq,0,0.8,-1.,1.\Bq,0,
 0.8,-0.8,1.\Bq,0,0.8,-0.6,1.\Bq,0,0.8,-0.4,1.\Bq,0,0.8,-0.2,1.\Bq,0,0.
 8,0.,1.\Bq,0,0.8,0.2,1.\Bq,0,0.8,0.4,1.\Bq,0,0.8,0.6,1.\Bq,0,0.8,0.8,1
 .\Bq,0,0.8,1.,1.\Bq,0,0.8,1.2,1.\Bq,0,0.8,1.4,1.\Bq,0,0.8,1.6,1.\Bq,0,
 0.8,1.8,1.\Bq,0,0.8,2.,1.\Bq,0,0.8,2.2,1.\Bq,0,0.8,2.4,1.\Bq,0,0.8,2.6
 ,1.\Bq,0,0.8,2.8,1.\Bq,0,0.8,3.,1.\Bq,0,1.,-3.,1.\Bq,0,1.,-2.8,1.\Bq,0
 ,1.,-2.6,1.\Bq,0,1.,-2.4,1.\Bq,0,1.,-2.2,1.\Bq,0,1.,-2.,1.\Bq,0,1.,-1.
 8,1.\Bq,0,1.,-1.6,1.\Bq,0,1.,-1.4,1.\Bq,0,1.,-1.2,1.\Bq,0,1.,-1.,1.\Bq
 ,0,1.,-0.8,1.\Bq,0,1.,-0.6,1.\Bq,0,1.,-0.4,1.\Bq,0,1.,-0.2,1.\Bq,0,1.,
 0.,1.\Bq,0,1.,0.2,1.\Bq,0,1.,0.4,1.\Bq,0,1.,0.6,1.\Bq,0,1.,0.8,1.\Bq,0
 ,1.,1.,1.\Bq,0,1.,1.2,1.\Bq,0,1.,1.4,1.\Bq,0,1.,1.6,1.\Bq,0,1.,1.8,1.\
 Bq,0,1.,2.,1.\Bq,0,1.,2.2,1.\Bq,0,1.,2.4,1.\Bq,0,1.,2.6,1.\Bq,0,1.,2.8
 ,1.\Bq,0,1.,3.,1.\Bq,0,1.2,-3.,1.\Bq,0,1.2,-2.8,1.\Bq,0,1.2,-2.6,1.\Bq
 ,0,1.2,-2.4,1.\Bq,0,1.2,-2.2,1.\Bq,0,1.2,-2.,1.\Bq,0,1.2,-1.8,1.\Bq,0,
 1.2,-1.6,1.\Bq,0,1.2,-1.4,1.\Bq,0,1.2,-1.2,1.\Bq,0,1.2,-1.,1.\Bq,0,1.2
 ,-0.8,1.\Bq,0,1.2,-0.6,1.\Bq,0,1.2,-0.4,1.\Bq,0,1.2,-0.2,1.\Bq,0,1.2,0
 .,1.\Bq,0,1.2,0.2,1.\Bq,0,1.2,0.4,1.\Bq,0,1.2,0.6,1.\Bq,0,1.2,0.8,1.\B
 q,0,1.2,1.,1.\Bq,0,1.2,1.2,1.\Bq,0,1.2,1.4,1.\Bq,0,1.2,1.6,1.\Bq,0,1.2
 ,1.8,1.\Bq,0,1.2,2.,1.\Bq,0,1.2,2.2,1.\Bq,0,1.2,2.4,1.\Bq,0,1.2,2.6,1.
 \Bq,0,1.2,2.8,1.\Bq,0,1.2,3.,1.\Bq,0,1.4,-3.,1.\Bq,0,1.4,-2.8,1.\Bq,0,
 1.4,-2.6,1.\Bq,0,1.4,-2.4,1.\Bq,0,1.4,-2.2,1.\Bq,0,1.4,-2.,1.\Bq,0,1.4
 ,-1.8,1.\Bq,0,1.4,-1.6,1.\Bq,0,1.4,-1.4,1.\Bq,0,1.4,-1.2,1.\Bq,0,1.4,-
 1.,1.\Bq,0,1.4,-0.8,1.\Bq,0,1.4,-0.6,1.\Bq,0,1.4,-0.4,1.\Bq,0,1.4,-0.2
 ,1.\Bq,0,1.4,0.,1.\Bq,0,1.4,0.2,1.\Bq,0,1.4,0.4,1.\Bq,0,1.4,0.6,1.\Bq,
 0,1.4,0.8,1.\Bq,0,1.4,1.,1.\Bq,0,1.4,1.2,1.\Bq,0,1.4,1.4,1.\Bq,0,1.4,1
 .6,1.\Bq,0,1.4,1.8,1.\Bq,0,1.4,2.,1.\Bq,0,1.4,2.2,1.\Bq,0,1.4,2.4,1.\B
 q,0,1.4,2.6,1.\Bq,0,1.4,2.8,1.\Bq,0,1.4,3.,1.\Bq,0,1.6,-3.,1.\Bq,0,1.6
 ,-2.8,1.\Bq,0,1.6,-2.6,1.\Bq,0,1.6,-2.4,1.\Bq,0,1.6,-2.2,1.\Bq,0,1.6,-
 2.,1.\Bq,0,1.6,-1.8,1.\Bq,0,1.6,-1.6,1.\Bq,0,1.6,-1.4,1.\Bq,0,1.6,-1.2
 ,1.\Bq,0,1.6,-1.,1.\Bq,0,1.6,-0.8,1.\Bq,0,1.6,-0.6,1.\Bq,0,1.6,-0.4,1.
 \Bq,0,1.6,-0.2,1.\Bq,0,1.6,0.,1.\Bq,0,1.6,0.2,1.\Bq,0,1.6,0.4,1.\Bq,0,
 1.6,0.6,1.\Bq,0,1.6,0.8,1.\Bq,0,1.6,1.,1.\Bq,0,1.6,1.2,1.\Bq,0,1.6,1.4
 ,1.\Bq,0,1.6,1.6,1.\Bq,0,1.6,1.8,1.\Bq,0,1.6,2.,1.\Bq,0,1.6,2.2,1.\Bq,
 0,1.6,2.4,1.\Bq,0,1.6,2.6,1.\Bq,0,1.6,2.8,1.\Bq,0,1.6,3.,1.\Bq,0,1.8,-
 3.,1.\Bq,0,1.8,-2.8,1.\Bq,0,1.8,-2.6,1.\Bq,0,1.8,-2.4,1.\Bq,0,1.8,-2.2
 ,1.\Bq,0,1.8,-2.,1.\Bq,0,1.8,-1.8,1.\Bq,0,1.8,-1.6,1.\Bq,0,1.8,-1.4,1.
 \Bq,0,1.8,-1.2,1.\Bq,0,1.8,-1.,1.\Bq,0,1.8,-0.8,1.\Bq,0,1.8,-0.6,1.\Bq
 ,0,1.8,-0.4,1.\Bq,0,1.8,-0.2,1.\Bq,0,1.8,0.,1.\Bq,0,1.8,0.2,1.\Bq,0,1.
 8,0.4,1.\Bq,0,1.8,0.6,1.\Bq,0,1.8,0.8,1.\Bq,0,1.8,1.,1.\Bq,0,1.8,1.2,1
 .\Bq,0,1.8,1.4,1.\Bq,0,1.8,1.6,1.\Bq,0,1.8,1.8,1.\Bq,0,1.8,2.,1.\Bq,0,
 1.8,2.2,1.\Bq,0,1.8,2.4,1.\Bq,0,1.8,2.6,1.\Bq,0,1.8,2.8,1.\Bq,0,1.8,3.
 ,1.\Bq,0,2.,-3.,1.\Bq,0,2.,-2.8,1.\Bq,0,2.,-2.6,1.\Bq,0,2.,-2.4,1.\Bq,
 0,2.,-2.2,1.\Bq,0,2.,-2.,1.\Bq,0,2.,-1.8,1.\Bq,0,2.,-1.6,1.\Bq,0,2.,-1
 .4,1.\Bq,0,2.,-1.2,1.\Bq,0,2.,-1.,1.\Bq,0,2.,-0.8,1.\Bq,0,2.,-0.6,1.\B
 q,0,2.,-0.4,1.\Bq,0,2.,-0.2,1.\Bq,0,2.,0.,1.\Bq,0,2.,0.2,1.\Bq,0,2.,0.
 4,1.\Bq,0,2.,0.6,1.\Bq,0,2.,0.8,1.\Bq,0,2.,1.,1.\Bq,0,2.,1.2,1.\Bq,0,2
 .,1.4,1.\Bq,0,2.,1.6,1.\Bq,0,2.,1.8,1.\Bq,0,2.,2.,1.\Bq,0,2.,2.2,1.\Bq
 ,0,2.,2.4,1.\Bq,0,2.,2.6,1.\Bq,0,2.,2.8,1.\Bq,0,2.,3.,1.\Bq,0,2.2,-3.,
 1.\Bq,0,2.2,-2.8,1.\Bq,0,2.2,-2.6,1.\Bq,0,2.2,-2.4,1.\Bq,0,2.2,-2.2,1.
 \Bq,0,2.2,-2.,1.\Bq,0,2.2,-1.8,1.\Bq,0,2.2,-1.6,1.\Bq,0,2.2,-1.4,1.\Bq
 ,0,2.2,-1.2,1.\Bq,0,2.2,-1.,1.\Bq,0,2.2,-0.8,1.\Bq,0,2.2,-0.6,1.\Bq,0,
 2.2,-0.4,1.\Bq,0,2.2,-0.2,1.\Bq,0,2.2,0.,1.\Bq,0,2.2,0.2,1.\Bq,0,2.2,0
 .4,1.\Bq,0,2.2,0.6,1.\Bq,0,2.2,0.8,1.\Bq,0,2.2,1.,1.\Bq,0,2.2,1.2,1.\B
 q,0,2.2,1.4,1.\Bq,0,2.2,1.6,1.\Bq,0,2.2,1.8,1.\Bq,0,2.2,2.,1.\Bq,0,2.2
 ,2.2,1.\Bq,0,2.2,2.4,1.\Bq,0,2.2,2.6,1.\Bq,0,2.2,2.8,1.\Bq,0,2.2,3.,1.
 \Bq,0,2.4,-3.,1.\Bq,0,2.4,-2.8,1.\Bq,0,2.4,-2.6,1.\Bq,0,2.4,-2.4,1.\Bq
 ,0,2.4,-2.2,1.\Bq,0,2.4,-2.,1.\Bq,0,2.4,-1.8,1.\Bq,0,2.4,-1.6,1.\Bq,0,
 2.4,-1.4,1.\Bq,0,2.4,-1.2,1.\Bq,0,2.4,-1.,1.\Bq,0,2.4,-0.8,1.\Bq,0,2.4
 ,-0.6,1.\Bq,0,2.4,-0.4,1.\Bq,0,2.4,-0.2,1.\Bq,0,2.4,0.,1.\Bq,0,2.4,0.2
 ,1.\Bq,0,2.4,0.4,1.\Bq,0,2.4,0.6,1.\Bq,0,2.4,0.8,1.\Bq,0,2.4,1.,1.\Bq,
 0,2.4,1.2,1.\Bq,0,2.4,1.4,1.\Bq,0,2.4,1.6,1.\Bq,0,2.4,1.8,1.\Bq,0,2.4,
 2.,1.\Bq,0,2.4,2.2,1.\Bq,0,2.4,2.4,1.\Bq,0,2.4,2.6,1.\Bq,0,2.4,2.8,1.\
 Bq,0,2.4,3.,1.\Bq,0,2.6,-3.,1.\Bq,0,2.6,-2.8,1.\Bq,0,2.6,-2.6,1.\Bq,0,
 2.6,-2.4,1.\Bq,0,2.6,-2.2,1.\Bq,0,2.6,-2.,1.\Bq,0,2.6,-1.8,1.\Bq,0,2.6
 ,-1.6,1.\Bq,0,2.6,-1.4,1.\Bq,0,2.6,-1.2,1.\Bq,0,2.6,-1.,1.\Bq,0,2.6,-0
 .8,1.\Bq,0,2.6,-0.6,1.\Bq,0,2.6,-0.4,1.\Bq,0,2.6,-0.2,1.\Bq,0,2.6,0.,1
 .\Bq,0,2.6,0.2,1.\Bq,0,2.6,0.4,1.\Bq,0,2.6,0.6,1.\Bq,0,2.6,0.8,1.\Bq,0
 ,2.6,1.,1.\Bq,0,2.6,1.2,1.\Bq,0,2.6,1.4,1.\Bq,0,2.6,1.6,1.\Bq,0,2.6,1.
 8,1.\Bq,0,2.6,2.,1.\Bq,0,2.6,2.2,1.\Bq,0,2.6,2.4,1.\Bq,0,2.6,2.6,1.\Bq
 ,0,2.6,2.8,1.\Bq,0,2.6,3.,1.\Bq,0,2.8,-3.,1.\Bq,0,2.8,-2.8,1.\Bq,0,2.8
 ,-2.6,1.\Bq,0,2.8,-2.4,1.\Bq,0,2.8,-2.2,1.\Bq,0,2.8,-2.,1.\Bq,0,2.8,-1
 .8,1.\Bq,0,2.8,-1.6,1.\Bq,0,2.8,-1.4,1.\Bq,0,2.8,-1.2,1.\Bq,0,2.8,-1.,
 1.\Bq,0,2.8,-0.8,1.\Bq,0,2.8,-0.6,1.\Bq,0,2.8,-0.4,1.\Bq,0,2.8,-0.2,1.
 \Bq,0,2.8,0.,1.\Bq,0,2.8,0.2,1.\Bq,0,2.8,0.4,1.\Bq,0,2.8,0.6,1.\Bq,0,2
 .8,0.8,1.\Bq,0,2.8,1.,1.\Bq,0,2.8,1.2,1.\Bq,0,2.8,1.4,1.\Bq,0,2.8,1.6,
 1.\Bq,0,2.8,1.8,1.\Bq,0,2.8,2.,1.\Bq,0,2.8,2.2,1.\Bq,0,2.8,2.4,1.\Bq,0
 ,2.8,2.6,1.\Bq,0,2.8,2.8,1.\Bq,0,2.8,3.,1.\Bq,0,3.,-3.,1.\Bq,0,3.,-2.8
 ,1.\Bq,0,3.,-2.6,1.\Bq,0,3.,-2.4,1.\Bq,0,3.,-2.2,1.\Bq,0,3.,-2.,1.\Bq,
 0,3.,-1.8,1.\Bq,0,3.,-1.6,1.\Bq,0,3.,-1.4,1.\Bq,0,3.,-1.2,1.\Bq,0,3.,-
 1.,1.\Bq,0,3.,-0.8,1.\Bq,0,3.,-0.6,1.\Bq,0,3.,-0.4,1.\Bq,0,3.,-0.2,1.\
 Bq,0,3.,0.,1.\Bq,0,3.,0.2,1.\Bq,0,3.,0.4,1.\Bq,0,3.,0.6,1.\Bq,0,3.,0.8
 ,1.\Bq,0,3.,1.,1.\Bq,0,3.,1.2,1.\Bq,0,3.,1.4,1.\Bq,0,3.,1.6,1.\Bq,0,3.
 ,1.8,1.\Bq,0,3.,2.,1.\Bq,0,3.,2.2,1.\Bq,0,3.,2.4,1.\Bq,0,3.,2.6,1.\Bq,
 0,3.,2.8,1.\Bq,0,3.,3.,1.\\Version=ES64L-G16RevC.01\HF=-232.3371581\RM
 SD=6.379e-09\Dipole=0.,0.,0.\Quadrupole=1.9451636,1.9455752,-3.8907388
 ,0.,0.,0.\PG=C01 [X(C6H6)]\\@


 IT IS A PROFOUNDLY ERRONEOUS TRUISM ... THAT WE SHOULD CULTIVATE
 THE HABIT OF THINKING OF WHAT WE ARE DOING.
 THE PRECISE OPPOSITE IS THE CASE.
 CIVILIZATION ADVANCES BY EXTENDING THE NUMBER OF IMPORTANT OPERATIONS
 WHICH WE CAN PERFORM WITHOUT THINKING ABOUT THEM.

                                    -- ALFRED NORTH WHITEHEAD
 Job cpu time:       0 days  0 hours 20 minutes 40.8 seconds.
 Elapsed time:       0 days  0 hours  1 minutes 26.9 seconds.
 File lengths (MBytes):  RWF=     40 Int=      0 D2E=      0 Chk=      8 Scr=      2
 Normal termination of Gaussian 16 at Mon Oct 30 17:19:22 2023.
